
                                 *****************
                                 * O   R   C   A *
                                 *****************

                                            #,                                       
                                            ###                                      
                                            ####                                     
                                            #####                                    
                                            ######                                   
                                           ########,                                 
                                     ,,################,,,,,                         
                               ,,#################################,,                 
                          ,,##########################################,,             
                       ,#########################################, ''#####,          
                    ,#############################################,,   '####,        
                  ,##################################################,,,,####,       
                ,###########''''           ''''###############################       
              ,#####''   ,,,,##########,,,,          '''####'''          '####       
            ,##' ,,,,###########################,,,                        '##       
           ' ,,###''''                  '''############,,,                           
         ,,##''                                '''############,,,,        ,,,,,,###''
      ,#''                                            '''#######################'''  
     '                                                          ''''####''''         
             ,#######,   #######,   ,#######,      ##                                
            ,#'     '#,  ##    ##  ,#'     '#,    #''#        ,####,   ,####,        
            ##       ##  ##   ,#'  ##            #'  '#       #'       #'  '#        
            ##       ##  #######   ##           ,######,      #####,   #    #        
            '#,     ,#'  ##    ##  '#,     ,#' ,#      #,     #,   #   #,  ,#        
             '#######'   ##     ##  '#######'  #'      '#     '####' # '####'        



                #########################################################
                #                        -***-                          #
                #          Department of theory and spectroscopy        #
                #                                                       #
                #                      Frank Neese                      #
                #                                                       #
                #     Directorship, Architecture, Infrastructure        #
                #                    SHARK, DRIVERS                     #
                #        Core code/Algorithms in most modules           #
                #                                                       #
                #        Max Planck Institute fuer Kohlenforschung      #
                #                Kaiser Wilhelm Platz 1                 #
                #                 D-45470 Muelheim/Ruhr                 #
                #                      Germany                          #
                #                                                       #
                #                  All rights reserved                  #
                #                        -***-                          #
                #########################################################


                         Program Version 6.0.1  -  RELEASE   -


 With contributions from (in alphabetic order):
[Max-Planck-Institut fuer Kohlenforschung]                               
  Daniel Aravena         : Magnetic Suceptibility                        
  Michael Atanasov       : Ab Initio Ligand Field Theory (pilot matlab implementation)
  Alexander A. Auer      : GIAO ZORA, VPT2 properties, NMR spectrum      
  Ute Becker             : All parallelization in ORCA, NUMFREQ, NUMCALC 
  Giovanni Bistoni       : ED, misc. LED, open-shell LED, HFLD           
  Martin Brehm           : Molecular dynamics                            
  Dmytro Bykov           : pre 5.0 version of the SCF Hessian            
  Marcos Casanova-Páez   : Triplet and SCS-CIS(D). UHF-(DLPNO)-IP/EA/STEOM-CCSD. UHF-CVS-IP/STEOM-CCSD   
  Vijay G. Chilkuri      : MRCI spin determinant printing, contributions to CSF-ICE 
  Pauline Colinet        : FMM embedding                                 
  Dipayan Datta          : RHF DLPNO-CCSD density                        
  Achintya Kumar Dutta   : EOM-CC, STEOM-CC                              
  Nicolas Foglia         : Exact transition moments, OPA infrastructure, MCD improvements    
  Dmitry Ganyushin       : Spin-Orbit,Spin-Spin,Magnetic field MRCI      
  Miquel Garcia-Rates    : C-PCM and meta-GGA Hessian, CCSD/C-PCM, Gaussian charge scheme 
  Tiago L. C. Gouveia    : GS-ROHF, GS-ROCIS                             
  Yang Guo               : DLPNO-NEVPT2, F12-NEVPT2, CIM, IAO-localization        
  Andreas Hansen         : Spin unrestricted coupled pair/coupled cluster methods 
  Ingolf Harden          : AUTO-CI MPn and infrastructure                
  Benjamin Helmich-Paris : MC-RPA, TRAH-(SCF,CASSCF), AVAS, COSX integrals, SCF dyn. polar. 
  Lee Huntington         : MR-EOM, pCC                                   
  Robert Izsak           : Overlap fitted RIJCOSX, COSX-SCS-MP3, EOM     
  Riya Kayal             : Wick's Theorem for AUTO-CI, AUTO-CI UHF-CCSDT 
  Emily Kempfer          : AUTO-CI, RHF CISDT and CCSDT                  
  Christian Kollmar      : KDIIS, OOCD, Brueckner-CCSD(T), CCSD density, CASPT2, CASPT2-K, improved NEVPT2 
  Axel Koslowski         : Symmetry handling                             
  Simone Kossmann        : meta-GGA functionals, TD-DFT gradient, OOMP2, (MP2 Hessian; deprecated post 5.0) 
  Lucas Lang             : DCDCAS                                        
  Marvin Lechner         : AUTO-CI (C++ implementation), FIC-MRCC        
  Spencer Leger          : CASSCF response                               
  Dagmar Lenk            : GEPOL surface, SMD, ORCA-2-JSON               
  Dimitrios Liakos       : Extrapolation schemes; Compound Job, initial MDCI parallelization 
  Dimitrios Manganas     : Further ROCIS development; embedding schemes. LFT, Crystal Embedding 
  Dimitrios Pantazis     : SARC Basis sets                               
  Anastasios Papadopoulos: AUTO-CI, single reference methods and gradients 
  Taras Petrenko         : pre 6.0 DFT Hessian and TD-DFT gradient, (ASA, deprecated), ECA, 1-Electron XAS/XES, NRVS 
  Peter Pinski           : DLPNO-MP2, DLPNO-MP2 Gradient                 
  Christoph Reimann      : Effective Core Potentials                     
  Marius Retegan         : Local ZFS, SOC                                
  Christoph Riplinger    : Optimizer, TS searches, QM/MM, DLPNO-CCSD(T), (RO)-DLPNO pert. Triples 
  Michael Roemelt        : Original ROCIS implementation                 
  Masaaki Saitow         : Open-shell DLPNO-CCSD energy and density      
  Barbara Sandhoefer     : DKH picture change effects                    
  Kantharuban Sivalingam : CASSCF convergence/infrastructure, NEVPT2 and variants, FIC-MRCI 
  Bernardo de Souza      : ESD, SOC TD-DFT                               
  Georgi L. Stoychev     : AutoAux, RI-MP2 NMR, DLPNO-MP2 response, X2C  
  Van Anh Tran           : RI-MP2 g-tensors                              
  Willem Van den Heuvel  : Paramagnetic NMR                              
  Zikuan Wang            : NOTCH, Electric field optimization            
  Frank Wennmohs         : Technical directorship and infrastructure     
  Hang Xu                : AUTO-CI-Response properties                   
                                                                         
[FACCTs GmbH]                                                            
  Markus Bursch, Miquel Garcia-Rates, Christoph Riplinger, Bernardo de Souza, Georgi L. Stoychev 
                                                                 
  APM, Basis sets (HGBS, AHGBS, def-TZVP (Ac-Lr), def2-XVPD (La-Lu)), CI-OPT, improved COSX, DLPNO-Multilevel,           
  DOCKER, DRACO, updates on ESD, GOAT, IRC, LR-CPCM, MBIS, meta-GGA TD-DFT gradient, ML-optimized integration grids, 
  MM, NACMEs, nearIR, NEB, NEB-TS, NL-DFT gradient (VV10), 2- and 3-layer-ONIOM, interface openCOSMO-RS, QMMM,   
  Crystal-QMMM, SF, symmetry and pop. for TD-DFT, r2SCAN hybrids, SOLVATOR                                   
                                                                         
[Other institutions]                                                     
  V. Asgeirsson          : NEB                                           
  Christoph Bannwarth    : sTDA-DFT, sTD-DFT, PBEh-3c, B97-3c, D3        
  Sebastian Ehlert       : rSCAN, r2SCAN, r2SCAN-3c, D4, dhf basis sets  
  Marvin Friede          : D4 for Fr, Ra, Ac-Lr                          
  Lars Goerigk           : TD-DFT with DH, B97 family of functionals     
  Stefan Grimme          : VdW corrections, initial TS optimization, DFT functionals, gCP, sTDA/sTD-DF 
  Waldemar Hujo          : DFT-NL                                        
  H. Jonsson             : NEB                                           
  Holger Kruse           : gCP                                           
  Marcel Mueller         : wB97X-3c, vDZP basis set                      
  Hagen Neugebauer       : wr2SCAN                                       
  Tobias Risthaus        : range-separated hybrid DFT                    
  Lukas Wittmann         : regularized MP2, r2SCAN double-hybrids, wr2SCAN        
                                                                         
We gratefully acknowledge several colleagues who have allowed us to      
interface, adapt or use parts of their codes:                            
  Ed Valeev, F. Pavosevic, A. Kumar             : LibInt (2-el integral package), F12 methods 
  Garnet Chan, S. Sharma, J. Yang, R. Olivares  : DMRG                   
  Ulf Ekstrom                                   : XCFun DFT Library      
  Mihaly Kallay                                 : mrcc  (arbitrary order and MRCC methods)
  Frank Weinhold                                : gennbo (NPA and NBO analysis)           
  Simon Mueller                                 : openCOSMO-RS                            
  Christopher J. Cramer and Donald G. Truhlar   : smd solvation model                     
  S Lehtola, MJT Oliveira, MAL Marques          : LibXC Library                           
  Liviu Ungur et al                             : ANISO software                          


 Your calculation uses the libint2 library for the computation of 2-el integrals
 For citations please refer to: http://libint.valeyev.net

 Your ORCA version has been built with support for libXC version: 6.2.2
 For citations please refer to: https://libxc.gitlab.io

 This ORCA versions uses:
   CBLAS   interface :  Fast vector & matrix operations
   LAPACKE interface :  Fast linear algebra routines
   SCALAPACK package :  Parallel linear algebra routines
   Shared memory     :  Shared parallel matrices
   BLAS/LAPACK       :  OpenBLAS 0.3.27  USE64BITINT DYNAMIC_ARCH NO_AFFINITY Haswell SINGLE_THREADED
        Core in use  :  Haswell
   Copyright (c) 2011-2014, The OpenBLAS Project




***************************************
The coordinates will be read from file: CH3Br.xyz
***************************************


================================================================================

----- Orbital basis set information -----
Your calculation utilizes the basis: def2-SVP
   F. Weigend and R. Ahlrichs, Phys. Chem. Chem. Phys. 7, 3297 (2005).

----- AuxJ basis set information -----
Your calculation utilizes the auxiliary basis: SARC/J 
   decontracted def2/J up to Kr:
   F. Weigend, Phys. Chem. Chem. Phys. 8, 1057 (2006)
   and SARC auxiliary basis sets beyond Kr:
   D. A. Pantazis and F. Neese, J. Chem. Theory Comput. 5, 2229 (2009).
   D. A. Pantazis, X. Y. Chen, C. R. Landis and F. Neese, J. Chem. Theory Comput. 4, 908 (2008).
   D. A. Pantazis and F. Neese, Theor. Chem. Acc. 131, 1292 (2012).
   D. A. Pantazis and F. Neese, J. Chem. Theory Comput. 7, 677 (2011).

----- AuxC basis set information -----
Your calculation utilizes the auxiliary basis: def2-SVP/C
  H-La, Hf-Rn : A. Hellweg, C. Hattig, S. Hofener and W. Klopper, Theor. Chem. Acc. 117, 587 (2007).
        Ce-Lu : J. Chmela and M. E. Harding, Mol. Phys. (2018).

================================================================================
                                        WARNINGS
                       Please study these warnings very carefully!
================================================================================

WARNING: Old DensityContainer found on disk!
         Will remove this file - 
         If you want to keep old densities, please start your calculation with a different basename. 


WARNING: In scalar relativistic gradient/hessian runs we need the one-center approximation
  ===> : %rel OneCenter is turned on

WARNING: Requested PictureChange>0 is not available for DKH one-center approximation (OneCenter=true).
         Continueing the run with OneCenter=true and no picture change (PictureChange=0).
         If picture change is important, repeat the calculation with OneCenter=false. 

WARNING: Geometry Optimization
  ===> : Switching off AutoStart
         For restart on a previous wavefunction, please use MOREAD



***************************************
The coordinates will be read from file: CH3Br.xyz
***************************************


================================================================================

----- Orbital basis set information -----
Your calculation utilizes the basis: def2-SVP
   F. Weigend and R. Ahlrichs, Phys. Chem. Chem. Phys. 7, 3297 (2005).

----- AuxJ basis set information -----
Your calculation utilizes the auxiliary basis: SARC/J 
   decontracted def2/J up to Kr:
   F. Weigend, Phys. Chem. Chem. Phys. 8, 1057 (2006)
   and SARC auxiliary basis sets beyond Kr:
   D. A. Pantazis and F. Neese, J. Chem. Theory Comput. 5, 2229 (2009).
   D. A. Pantazis, X. Y. Chen, C. R. Landis and F. Neese, J. Chem. Theory Comput. 4, 908 (2008).
   D. A. Pantazis and F. Neese, Theor. Chem. Acc. 131, 1292 (2012).
   D. A. Pantazis and F. Neese, J. Chem. Theory Comput. 7, 677 (2011).

----- AuxC basis set information -----
Your calculation utilizes the auxiliary basis: def2-SVP/C
  H-La, Hf-Rn : A. Hellweg, C. Hattig, S. Hofener and W. Klopper, Theor. Chem. Acc. 117, 587 (2007).
        Ce-Lu : J. Chmela and M. E. Harding, Mol. Phys. (2018).

================================================================================
                                        WARNINGS
                       Please study these warnings very carefully!
================================================================================


WARNING: Requested PictureChange>0 is not available for DKH one-center approximation (OneCenter=true).
         Continueing the run with OneCenter=true and no picture change (PictureChange=0).
         If picture change is important, repeat the calculation with OneCenter=false. 
INFO   : Checking CIS options ...

================================================================================
                                       INPUT FILE
================================================================================
NAME = CH3Br.inp
|  1> !def2-SVP PBE0 SARC/J def2-SVP/C Opt
|  2> * xyzfile 0 1 CH3Br.xyz
|  3> %scf
|  4> MaxIter 100
|  5> end
|  6> %rel
|  7> method DKH
|  8> order 2
|  9> picturechange 2
| 10> end
| 11> $new_job
| 12> !def2-SVP PBE0 RI-SOMF(1X) SARC/J def2-SVP/C
| 13> %TDDFT
| 14> NROOTS  3
| 15> DOSOC   TRUE
| 16> TDA     TRUE
| 17> TRIPLETS TRUE
| 18> END
| 19> * xyzfile 0 1 CH3Br.xyz
| 20> %scf
| 21> MaxIter 100
| 22> end
| 23> %rel
| 24> method DKH
| 25> order 2
| 26> picturechange 2
| 27> SOCType 3
| 28> SOCFlags 1,3,3,0
| 29> SOCMaxCenter 4
| 30> end
| 31> 
| 32>                          ****END OF INPUT****
================================================================================


                 $$$$$$$$$$$$$$$$$$$$$$$$$$$$$$$$$$$$$$$$$$$$$$ 
                 $ THERE ARE  2 JOBS TO BE PROCESSED THIS RUN $
                 $$$$$$$$$$$$$$$$$$$$$$$$$$$$$$$$$$$$$$$$$$$$$$ 




                 $$$$$$$$$$$$$$$$  JOB NUMBER  1 $$$$$$$$$$$$$$


                       *****************************
                       * Geometry Optimization Run *
                       *****************************

Geometry optimization settings:
Update method            Update   .... BFGS
Choice of coordinates    CoordSys .... (2022) Redundant Internals
Initial Hessian          InHess   .... Almloef's Model
Max. no of cycles        MaxIter  .... 50

Convergence Tolerances:
Energy Change            TolE     ....  5.0000e-06 Eh
Max. Gradient            TolMAXG  ....  3.0000e-04 Eh/bohr
RMS Gradient             TolRMSG  ....  1.0000e-04 Eh/bohr
Max. Displacement        TolMAXD  ....  4.0000e-03 bohr
RMS Displacement         TolRMSD  ....  2.0000e-03 bohr
Strict Convergence                .... False

------------------------------------------------------------------------------
                        ORCA OPTIMIZATION COORDINATE SETUP
------------------------------------------------------------------------------

The optimization will be done in redundant internal coordinates (2022)
Making redundant internal coordinates   ...  (2022 redundants) done
Evaluating the initial hessian          ...  (Almloef) done
Evaluating the coordinates              ...  done
Calculating the B-matrix                .... done
Calculating the G-matrix                .... done
Diagonalizing the G-matrix              .... done
The first mode is                       ....    1
The number of degrees of freedom        ....    9

    -----------------------------------------------------------------
                    Redundant Internal Coordinates


    -----------------------------------------------------------------
         Definition                    Initial Value    Approx d2E/dq
    -----------------------------------------------------------------
      1. B(Br  1,C   0)                  1.9478         0.270593   
      2. B(H   2,C   0)                  1.0851         0.366608   
      3. B(H   3,C   0)                  1.0851         0.366608   
      4. B(H   4,C   0)                  1.0851         0.366608   
      5. A(Br  1,C   0,H   3)          107.5684         0.327304   
      6. A(H   2,C   0,H   3)          111.3051         0.292483   
      7. A(Br  1,C   0,H   4)          107.5684         0.327304   
      8. A(H   2,C   0,H   4)          111.3051         0.292483   
      9. A(H   3,C   0,H   4)          111.3051         0.292483   
     10. A(Br  1,C   0,H   2)          107.5684         0.327304   
    -----------------------------------------------------------------

Number of atoms                         .... 5
Number of degrees of freedom            .... 10


         *************************************************************
         *                GEOMETRY OPTIMIZATION CYCLE   1            *
         *************************************************************
---------------------------------
CARTESIAN COORDINATES (ANGSTROEM)
---------------------------------
  C     -0.016097   -0.016097   -0.016097
  Br     1.108459    1.108459    1.108459
  H     -0.627539    0.639473   -0.627539
  H      0.639473   -0.627539   -0.627539
  H     -0.627539   -0.627539    0.639473

----------------------------
CARTESIAN COORDINATES (A.U.)
----------------------------
  NO LB      ZA    FRAG     MASS         X           Y           Z
   0 C     6.0000    0    12.011   -0.030419   -0.030419   -0.030419
   1 Br   35.0000    0    79.900    2.094684    2.094684    2.094684
   2 H     1.0000    0     1.008   -1.185877    1.208429   -1.185877
   3 H     1.0000    0     1.008    1.208429   -1.185877   -1.185877
   4 H     1.0000    0     1.008   -1.185877   -1.185877    1.208429

--------------------------------
INTERNAL COORDINATES (ANGSTROEM)
--------------------------------
 C      0   0   0     0.000000000000     0.00000000     0.00000000
 Br     1   0   0     1.947788702176     0.00000000     0.00000000
 H      1   2   0     1.085124521219   107.56842625     0.00000000
 H      1   2   3     1.085124521219   107.56842625   120.00000000
 H      1   2   3     1.085124521219   107.56842625   240.00000000

---------------------------
INTERNAL COORDINATES (A.U.)
---------------------------
 C      0   0   0     0.000000000000     0.00000000     0.00000000
 Br     1   0   0     3.680787213858     0.00000000     0.00000000
 H      1   2   0     2.050588166306   107.56842625     0.00000000
 H      1   2   3     2.050588166306   107.56842625   120.00000000
 H      1   2   3     2.050588166306   107.56842625   240.00000000

---------------------
BASIS SET INFORMATION
---------------------
There are 3 groups of distinct atoms

 Group   1 Type C   : 7s4p1d contracted to 3s2p1d pattern {511/31/1}
 Group   2 Type Br  : 14s10p6d contracted to 5s4p3d pattern {63311/5311/411}
 Group   3 Type H   : 4s1p contracted to 2s1p pattern {31/1}

Atom   0C    basis set group =>   1
Atom   1Br   basis set group =>   2
Atom   2H    basis set group =>   3
Atom   3H    basis set group =>   3
Atom   4H    basis set group =>   3
---------------------------------
AUXILIARY/J BASIS SET INFORMATION
---------------------------------
There are 3 groups of distinct atoms

 Group   1 Type C   : 12s5p4d2f1g contracted to 12s5p4d2f1g pattern {111111111111/11111/1111/11/1}
 Group   2 Type Br  : 19s5p5d3f1g contracted to 19s5p5d3f1g pattern {1111111111111111111/11111/11111/111/1}
 Group   3 Type H   : 5s2p1d contracted to 5s2p1d pattern {11111/11/1}

Atom   0C    basis set group =>   1
Atom   1Br   basis set group =>   2
Atom   2H    basis set group =>   3
Atom   3H    basis set group =>   3
Atom   4H    basis set group =>   3
---------------------------------
AUXILIARY/C BASIS SET INFORMATION
---------------------------------
There are 3 groups of distinct atoms

 Group   1 Type C   : 8s6p5d3f contracted to 6s5p4d1f pattern {311111/21111/2111/3}
 Group   2 Type Br  : 10s9p8d6f4g contracted to 10s9p7d4f3g pattern {1111111111/111111111/2111111/2112/211}
 Group   3 Type H   : 4s3p2d contracted to 3s2p1d pattern {211/21/2}

Atom   0C    basis set group =>   1
Atom   1Br   basis set group =>   2
Atom   2H    basis set group =>   3
Atom   3H    basis set group =>   3
Atom   4H    basis set group =>   3
------------------------------------------------------------------------------
                             ORCA STARTUP CALCULATIONS
                           -- RI-GTO INTEGRALS CHOSEN --
------------------------------------------------------------------------------
------------------------------------------------------------------------------
                   ___                                                        
                  /   \      - P O W E R E D   B Y -                         
                 /     \                                                     
                 |  |  |   _    _      __       _____    __    __             
                 |  |  |  | |  | |    /  \     |  _  \  |  |  /  |          
                  \  \/   | |  | |   /    \    | | | |  |  | /  /          
                 / \  \   | |__| |  /  /\  \   | |_| |  |  |/  /          
                |  |  |   |  __  | /  /__\  \  |    /   |      \           
                |  |  |   | |  | | |   __   |  |    \   |  |\   \          
                \     /   | |  | | |  |  |  |  | |\  \  |  | \   \       
                 \___/    |_|  |_| |__|  |__|  |_| \__\ |__|  \__/        
                                                                              
                      - O R C A' S   B I G   F R I E N D -                    
                                      &                                       
                       - I N T E G R A L  F E E D E R -                       
                                                                              
 v1 FN, 2020, v2 2021, v3 2022-2024                                           
------------------------------------------------------------------------------


----------------------
SHARK INTEGRAL PACKAGE
----------------------

Number of atoms                             ...      5
Number of basis functions                   ...     61
Number of shells                            ...     27
Maximum angular momentum                    ...      2
Integral batch strategy                     ... SHARK/LIBINT Hybrid
RI-J (if used) integral strategy            ... SPLIT-RIJ (Revised 2003 algorithm where possible)
Printlevel                                  ...      1
Contraction scheme used                     ... SEGMENTED contraction
Prescreening option                         ... SCHWARTZ
   Thresh                                   ... 2.500e-11
   Tcut                                     ... 2.500e-12
   Tpresel                                  ... 2.500e-12 
Coulomb Range Separation                    ... NOT USED
Exchange Range Separation                   ... NOT USED
Multipole approximations                    ... NOT USED
Finite Nucleus Model                        ... NOT USED
CABS basis                                  ... NOT available
Auxiliary Coulomb fitting basis             ... AVAILABLE
   # of basis functions in Aux-J            ...    207
   # of shells in Aux-J                     ...     81
   Maximum angular momentum in Aux-J        ...      4
Auxiliary J/K fitting basis                 ... NOT available
Auxiliary Correlation fitting basis         ... AVAILABLE
   # of basis functions in Aux-C            ...    217
   # of shells in Aux-C                     ...     67
   Maximum angular momentum in Aux-C        ...      4
Auxiliary 'external' fitting basis          ... NOT available

Checking pre-screening integrals            ... done (  0.0 sec) Dimension = 27
Check shell pair data                       ... done (  0.0 sec)
Shell pair information
Shell pair cut-off parameter TPreSel        ...   2.5e-12
Total number of shell pairs                 ...       378
Shell pairs after pre-screening             ...       375
Total number of primitive shell pairs       ...      1715
Primitive shell pairs kept                  ...      1442
          la=0 lb=0:    103 shell pairs
          la=1 lb=0:    125 shell pairs
          la=1 lb=1:     45 shell pairs
          la=2 lb=0:     56 shell pairs
          la=2 lb=1:     36 shell pairs
          la=2 lb=2:     10 shell pairs

Calculating one electron integrals          ... done (  0.0 sec)
Calculating RI/J V-Matrix + Cholesky decomp.... done (  0.0 sec)
Calculating RI/C V-Matrix + Cholesky decomp.... done (  0.0 sec)
Calculating Nuclear repulsion               ... done (  0.0 sec) ENN=     88.947160204088 Eh

Diagonalization of the overlap matrix:
Smallest eigenvalue                        ... 1.033e-02
Time for diagonalization                   ...    0.000 sec
Threshold for overlap eigenvalues          ... 1.000e-07
Number of eigenvalues below threshold      ... 0
Time for construction of square roots      ...    0.000 sec
Total time needed                          ...    0.000 sec

-------------------
DFT GRID GENERATION
-------------------

General Integration Accuracy     IntAcc      ... 4.388
Radial Grid Type                 RadialGrid  ... OptM3 with GC (2021)
Angular Grid (max. ang.)         AngularGrid ... 4 (Lebedev-302)
Angular grid pruning method      GridPruning ... 4 (adaptive)
Weight generation scheme         WeightScheme... mBecke (2022)
Basis function cutoff            BFCut       ... 1.0000e-11
Integration weight cutoff        WCut        ... 1.0000e-14
Partially contracted basis set               ... off
Rotationally invariant grid construction     ... off
Angular grids for H and He will be reduced by one unit
Core-polarized basis detected: some atoms will have their core
                               angular grid increased.

Total number of grid points                  ...    27267
Total number of batches                      ...      429
Average number of points per batch           ...       63
Average number of grid points per atom       ...     5453

--------------------
COSX GRID GENERATION
--------------------

GRIDX 1
-------
General Integration Accuracy     IntAcc      ... 3.816
Radial Grid Type                 RadialGrid  ... OptM3 with GC (2021)
Angular Grid (max. ang.)         AngularGrid ... 1 (Lebedev-50)
Angular grid pruning method      GridPruning ... 4 (adaptive)
Weight generation scheme         WeightScheme... mBecke (2022)
Basis function cutoff            BFCut       ... 1.0000e-11
Integration weight cutoff        WCut        ... 1.0000e-14
Partially contracted basis set               ... on
Rotationally invariant grid construction     ... off
Angular grids for H and He will be reduced by one unit
Core-polarized basis detected: some atoms will have their core
                               angular grid increased.

Total number of grid points                  ...     8258
Total number of batches                      ...       67
Average number of points per batch           ...      123
Average number of grid points per atom       ...     1652
UseSFitting                                  ... on

GRIDX 2
-------
General Integration Accuracy     IntAcc      ... 4.020
Radial Grid Type                 RadialGrid  ... OptM3 with GC (2021)
Angular Grid (max. ang.)         AngularGrid ... 2 (Lebedev-110)
Angular grid pruning method      GridPruning ... 4 (adaptive)
Weight generation scheme         WeightScheme... mBecke (2022)
Basis function cutoff            BFCut       ... 1.0000e-11
Integration weight cutoff        WCut        ... 1.0000e-14
Partially contracted basis set               ... on
Rotationally invariant grid construction     ... off
Angular grids for H and He will be reduced by one unit
Core-polarized basis detected: some atoms will have their core
                               angular grid increased.

Total number of grid points                  ...    10441
Total number of batches                      ...       84
Average number of points per batch           ...      124
Average number of grid points per atom       ...     2088
UseSFitting                                  ... on

GRIDX 3
-------
General Integration Accuracy     IntAcc      ... 4.338
Radial Grid Type                 RadialGrid  ... OptM3 with GC (2021)
Angular Grid (max. ang.)         AngularGrid ... 3 (Lebedev-194)
Angular grid pruning method      GridPruning ... 4 (adaptive)
Weight generation scheme         WeightScheme... mBecke (2022)
Basis function cutoff            BFCut       ... 1.0000e-11
Integration weight cutoff        WCut        ... 1.0000e-14
Partially contracted basis set               ... on
Rotationally invariant grid construction     ... off
Angular grids for H and He will be reduced by one unit
Core-polarized basis detected: some atoms will have their core
                               angular grid increased.

Total number of grid points                  ...    15612
Total number of batches                      ...      125
Average number of points per batch           ...      124
Average number of grid points per atom       ...     3122
UseSFitting                                  ... on
Initializing property integral containers    ... done (  0.0 sec)

SHARK setup successfully completed in   0.2 seconds

Maximum memory used throughout the entire STARTUP-calculation: 13.9 MB
------------------------------------------------------------------------------
                          ORCA RELATIVISTIC HAMILTONIAN
------------------------------------------------------------------------------

Relativistic Method            ... DKH
Order of DKH treatment         ...   2
Treatment of potential         ... V(e,N)
Eps parameter for DKH          ...   0.00000000010000
Nucleus model                  ... Point Nucleus
Speed of light used            ... 137.03598950000000


            ************************************************
            *        DOUGLAS-KROLL-HESS HAMILTONIAN        *
            *   Programmed by FN according to literature   *
            *        procedures. Special thanks to         *
            *       B.A. Hess, M. Reiher and A. Wolf       *
            *     University Erlangen-Nuernberg/Bonn       *
            ************************************************

Uncontracting the basis (first version)        ... done
Number of contracted basis functions           ...   61
Number of uncontracted basis functions         ...  119
Initializing the DKH file                      ... done
One center approximation for DKH is active
Finding unique atoms                      ... 3 atom types
 ATOMIC NUMBER   6
          ... doing integrals
          ... Computing the DKH transformation
          ... Transforming V and pVp to p**2 space
          ... First transformation of V and pVp
          ... Second transformation of Veff
          ... Adding kinetic energy
          ... Back transformation of Veff to r-space
          ... Recontracting the H-matrix
          ... Computing the DKH correction to the H-matrix
          ... adding submatrics to 1 actual atoms
 ATOMIC NUMBER  35
          ... doing integrals
          ... Computing the DKH transformation
          ... Transforming V and pVp to p**2 space
          ... First transformation of V and pVp
          ... Second transformation of Veff
          ... Adding kinetic energy
          ... Back transformation of Veff to r-space
          ... Recontracting the H-matrix
          ... Computing the DKH correction to the H-matrix
          ... adding submatrics to 1 actual atoms
 ATOMIC NUMBER   1
          ... doing integrals
          ... Computing the DKH transformation
          ... Transforming V and pVp to p**2 space
          ... First transformation of V and pVp
          ... Second transformation of Veff
          ... Adding kinetic energy
          ... Back transformation of Veff to r-space
          ... Recontracting the H-matrix
          ... Computing the DKH correction to the H-matrix
          ... adding submatrics to 3 actual atoms
Storing DKH matrices                           ... done
Getting S**(-1/2)                              ... done
Reading the original H-matrix                  ... done
Adding DKH correction to the H-matrix          ... done
Storing the new modified H-matrix              ... done

Maximum memory used throughout the entire REL-calculation: 14.0 MB
-------------------------------------------------------------------------------
                                 ORCA GUESS
                   Start orbitals & Density for SCF / CASSCF
-------------------------------------------------------------------------------

------------
SCF SETTINGS
------------
Hamiltonian:
 Density Functional     Method          .... DFT(GTOs)
 Exchange Functional    Exchange        .... PBE
   PBE kappa parameter   XKappa         ....  0.804000
   PBE mue parameter    XMuePBE         ....  0.219520
 Correlation Functional Correlation     .... PBE
   PBE beta parameter  CBetaPBE         ....  0.066725
 LDA part of GGA corr.  LDAOpt          .... PW91-LDA
 Gradients option       PostSCFGGA      .... off
 Hybrid DFT is turned on
   Fraction HF Exchange ScalHFX         ....  0.250000
   Scaling of DF-GGA-X  ScalDFX         ....  0.750000
   Scaling of DF-GGA-C  ScalDFC         ....  1.000000
   Scaling of DF-LDA-C  ScalLDAC        ....  1.000000
   Perturbative correction              ....  0.000000
   NL short-range parameter             ....  6.900000
 RI-approximation to the Coulomb term is turned on
   Number of AuxJ basis functions       .... 207
   RIJ-COSX (HFX calculated with COS-X)).... on

Relativistic Settings:
 Scalar relativistic method             .... Douglas-Kroll-Hess
 Order of DKH procedure    Order        ....    2
 Mode of DKH-treatment                  .... V=V(e,N)
 Speed of light used       Velit        ....       137.035989
 Cutoff-constant           Eps          ....            1e-10 


General Settings:
 Integral files         IntName         .... CH3Br
 Hartree-Fock type      HFTyp           .... RHF
 Total Charge           Charge          ....    0
 Multiplicity           Mult            ....    1
 Number of Electrons    NEL             ....   44
 Basis Dimension        Dim             ....   61
 Nuclear Repulsion      ENuc            ....     88.9471602041 Eh

Convergence Acceleration:
 AO-DIIS                CNVDIIS         .... on
   Start iteration      DIISMaxIt       ....    12
   Startup error        DIISStart       ....  0.200000
   # of expansion vecs  DIISMaxEq       ....     5
   Bias factor          DIISBfac        ....   1.050
   Max. coefficient     DIISMaxC        ....  10.000
 MO-DIIS                CNVKDIIS        .... off
 Trust-Rad. Augm. Hess. CNVTRAH         .... auto
   Auto Start mean grad. ratio tolernc. ....  1.125000
   Auto Start start iteration           ....    50
   Auto Start num. interpolation iter.  ....    10
   Max. Number of Micro iterations      ....    24
   Max. Number of Macro iterations      .... Maxiter - #DIIS iter
   Number of Davidson start vectors     ....     2
   Converg. threshold    (grad. norm)   ....   1.000e-05
   Grad. Scal. Fac. for Micro threshold ....   0.100
   Minimum threshold for Micro iter.    ....   1.000e-02
   NR start threshold (gradient norm)   ....   1.000e-04
   Initial trust radius                 ....   0.400
   Minimum AH scaling param. (alpha)    ....   1.000
   Maximum AH scaling param. (alpha)    .... 1000.000
   Quad. conv. algorithm                .... NR
   White noise on init. David. guess    .... on
   Maximum white noise                  ....   0.010
   Pseudo random numbers                .... off
   Inactive MOs                         .... canonical
   Orbital update algorithm             .... Taylor
   Preconditioner                       .... Diag
   Full preconditioner red. dimension   ....   250
 SOSCF                  CNVSOSCF        .... on
   Start iteration      SOSCFMaxIt      ....   150
   Startup grad/error   SOSCFStart      ....  0.003300
   Hessian update       SOSCFHessUp     .... L-BFGS
 Level Shifting         CNVShift        .... on
   Level shift para.    LevelShift      ....    0.2500
   Turn off err/grad.   ShiftErr        ....    0.0010
 Zerner damping         CNVZerner       .... off
 Static damping         CNVDamp         .... on
   Fraction old density DampFac         ....    0.7000
   Max. Damping (<1)    DampMax         ....    0.9800
   Min. Damping (>=0)   DampMin         ....    0.0000
   Turn off err/grad.   DampErr         ....    0.1000

SCF Procedure:
 Maximum # iterations   MaxIter         ....   100
 SCF integral mode      SCFMode         .... Direct
   Integral package                     .... SHARK and LIBINT hybrid scheme
 Reset frequency        DirectResetFreq ....    20
 Integral Threshold     Thresh          ....  2.500e-11 Eh
 Primitive CutOff       TCut            ....  2.500e-12 Eh

Convergence Tolerance:
 Convergence Check Mode ConvCheckMode   .... Total+1el-Energy
 Convergence forced     ConvForced      .... 0
 Energy Change          TolE            ....  1.000e-08 Eh
 1-El. energy change                    ....  1.000e-05 Eh
 Orbital Gradient       TolG            ....  1.000e-05
 Orbital Rotation angle TolX            ....  1.000e-05
 DIIS Error             TolErr          ....  5.000e-07

------------------------------
INITIAL GUESS: MODEL POTENTIAL
------------------------------
Loading DKH relativistic densities                 ... done
Calculating cut-offs                               ... done
Initializing the effective Hamiltonian             ... done
Setting up the integral package (SHARK)            ... done
Starting the Coulomb interaction                   ... done (   0.0 sec)
Making the grid                                    ... done (   0.0 sec)
Mapping shells                                     ... done
Starting the XC term evaluation                    ... done (   0.0 sec)
  promolecular density results
     # of electrons  =     44.000507026
     EX              =    -96.936829827
     EC              =     -1.986877696
     EX+EC           =    -98.923707523
Transforming the Hamiltonian                       ... done (   0.0 sec)
Diagonalizing the Hamiltonian                      ... done (   0.0 sec)
Back transforming the eigenvectors                 ... done (   0.0 sec)
Now organizing SCF variables                       ... done
                      ------------------
                      INITIAL GUESS DONE (   0.0 sec)
                      ------------------
             **** ENERGY FILE WAS UPDATED (CH3Br.en.tmp) ****
Finished Guess after   0.1 sec
Maximum memory used throughout the entire GUESS-calculation: 8.4 MB

-------------------------------------------------------------------------------------------
                                      ORCA LEAN-SCF
                              memory conserving SCF solver
-------------------------------------------------------------------------------------------

----------------------------------------D-I-I-S--------------------------------------------
Iteration    Energy (Eh)           Delta-E    RMSDP     MaxDP     DIISErr   Damp  Time(sec)
-------------------------------------------------------------------------------------------
               ***  Starting incremental Fock matrix formation  ***
    1    -2636.7897704037945914     0.00e+00  3.08e-03  5.92e-02  1.66e-01  0.700   0.2
    2    -2636.8113621506158779    -2.16e-02  2.13e-03  3.54e-02  8.60e-02  0.700   0.2
                               ***Turning on AO-DIIS***
    3    -2636.8204031169134396    -9.04e-03  1.06e-03  2.36e-02  4.22e-02  0.700   0.2
    4    -2636.8257939318418721    -5.39e-03  2.20e-03  5.58e-02  2.75e-02  0.000   0.2
                              *** Initializing SOSCF ***
---------------------------------------S-O-S-C-F--------------------------------------
Iteration    Energy (Eh)           Delta-E    RMSDP     MaxDP     MaxGrad    Time(sec)
--------------------------------------------------------------------------------------
    5    -2636.8375746637102566    -1.18e-02  2.66e-04  3.56e-03  2.90e-03     0.2
               *** Restarting incremental Fock matrix formation ***
    6    -2636.8376442752860385    -6.96e-05  7.88e-05  7.46e-04  2.70e-04     0.2
    7    -2636.8376445778803827    -3.03e-07  3.09e-05  5.41e-04  2.42e-04     0.2
    8    -2636.8376452989491554    -7.21e-07  1.66e-05  3.47e-04  5.33e-05     0.2
    9    -2636.8376452974034692     1.55e-09  7.63e-06  1.67e-04  5.63e-05     0.2
                 **** Energy Check signals convergence ****

               *****************************************************
               *                     SUCCESS                       *
               *           SCF CONVERGED AFTER   9 CYCLES          *
               *****************************************************

Recomputing exchange energy using gridx3       ... done (    0.270 sec)
Old exchange energy                            :    -23.987694671 Eh
New exchange energy                            :    -23.987626937 Eh
Exchange energy change after final integration :      0.000067734 Eh
Total energy after final integration           :  -2636.837577564 Eh
             **** ENERGY FILE WAS UPDATED (CH3Br.en.tmp) ****

----------------
TOTAL SCF ENERGY
----------------

Total Energy       :      -2636.83757756360637 Eh          -71751.99829 eV

Components:
Nuclear Repulsion  :         88.94716020408754 Eh            2420.37528 eV
Electronic Energy  :      -2725.78480550149106 Eh          -74172.37541 eV
One Electron Energy:      -3838.11818196529975 Eh         -104440.50538 eV
Two Electron Energy:       1112.33337646380892 Eh           30268.12998 eV

Virial components:
Potential Energy   :      -5249.96345373730128 Eh         -142858.76838 eV
Kinetic Energy     :       2613.12587617369491 Eh           71106.77009 eV
Virial Ratio       :          2.00907407546116

DFT components:
N(Alpha)           :       22.000005113328 electrons
N(Beta)            :       22.000005113328 electrons
N(Total)           :       44.000010226656 electrons
E(X)               :      -71.656994918196 Eh       
E(C)               :       -2.002044732772 Eh       
E(XC)              :      -73.659039650968 Eh       

---------------
SCF CONVERGENCE
---------------

  Last Energy change         ...   -1.5457e-09  Tolerance :   1.0000e-08
  Last MAX-Density change    ...    1.6669e-04  Tolerance :   1.0000e-07
  Last RMS-Density change    ...    7.6345e-06  Tolerance :   5.0000e-09
  Last DIIS Error            ...    2.9049e-03  Tolerance :   5.0000e-07
  Last Orbital Gradient      ...    5.6310e-05  Tolerance :   1.0000e-05
  Last Orbital Rotation      ...    3.7806e-05  Tolerance :   1.0000e-05


----------------
ORBITAL ENERGIES
----------------

  NO   OCC          E(Eh)            E(eV) 
   0   2.0000    -489.201732    -13311.8559 
   1   2.0000     -64.376852     -1751.7832 
   2   2.0000     -57.184149     -1556.0598 
   3   2.0000     -57.181529     -1555.9885 
   4   2.0000     -57.181529     -1555.9885 
   5   2.0000     -10.289971      -280.0044 
   6   2.0000      -9.017899      -245.3895 
   7   2.0000      -6.683430      -181.8654 
   8   2.0000      -6.669870      -181.4964 
   9   2.0000      -6.669870      -181.4964 
  10   2.0000      -2.630704       -71.5851 
  11   2.0000      -2.626913       -71.4819 
  12   2.0000      -2.626913       -71.4819 
  13   2.0000      -2.615929       -71.1830 
  14   2.0000      -2.615929       -71.1830 
  15   2.0000      -0.833983       -22.6938 
  16   2.0000      -0.691050       -18.8044 
  17   2.0000      -0.457659       -12.4535 
  18   2.0000      -0.457659       -12.4535 
  19   2.0000      -0.396895       -10.8001 
  20   2.0000      -0.283652        -7.7186 
  21   2.0000      -0.283652        -7.7186 
  22   0.0000       0.010756         0.2927 
  23   0.0000       0.084890         2.3100 
  24   0.0000       0.130816         3.5597 
  25   0.0000       0.130816         3.5597 
  26   0.0000       0.344840         9.3836 
  27   0.0000       0.396742        10.7959 
  28   0.0000       0.396742        10.7959 
  29   0.0000       0.434360        11.8195 
  30   0.0000       0.556851        15.1527 
  31   0.0000       0.556851        15.1527 
  32   0.0000       0.602552        16.3963 
*Only the first 10 virtual orbitals were printed.

                    ********************************
                    * MULLIKEN POPULATION ANALYSIS *
                    ********************************

-----------------------
MULLIKEN ATOMIC CHARGES
-----------------------
   0 C :   -0.135609
   1 Br:   -0.164571
   2 H :    0.100060
   3 H :    0.100060
   4 H :    0.100060
Sum of atomic charges:    0.0000000

--------------------------------
MULLIKEN REDUCED ORBITAL CHARGES
--------------------------------
  0 C s       :     3.143186  s :     3.143186
      pz      :     0.988362  p :     2.965086
      px      :     0.988362
      py      :     0.988362
      dz2     :     0.001734  d :     0.027337
      dxz     :     0.007956
      dyz     :     0.007956
      dx2y2   :     0.001734
      dxy     :     0.007956

  1 Brs       :     7.975267  s :     7.975267
      pz      :     5.715007  p :    17.145020
      px      :     5.715007
      py      :     5.715007
      dz2     :     2.005248  d :    10.044284
      dxz     :     2.011263
      dyz     :     2.011263
      dx2y2   :     2.005248
      dxy     :     2.011263

  2 H s       :     0.875645  s :     0.875645
      pz      :     0.007918  p :     0.024296
      px      :     0.007918
      py      :     0.008459

  3 H s       :     0.875645  s :     0.875645
      pz      :     0.007918  p :     0.024296
      px      :     0.008459
      py      :     0.007918

  4 H s       :     0.875645  s :     0.875645
      pz      :     0.008459  p :     0.024296
      px      :     0.007918
      py      :     0.007918



                     *******************************
                     * LOEWDIN POPULATION ANALYSIS *
                     *******************************

----------------------
LOEWDIN ATOMIC CHARGES
----------------------
   0 C :   -0.101902
   1 Br:   -0.006084
   2 H :    0.035995
   3 H :    0.035995
   4 H :    0.035995

-------------------------------
LOEWDIN REDUCED ORBITAL CHARGES
-------------------------------
  0 C s       :     2.906519  s :     2.906519
      pz      :     1.043206  p :     3.129618
      px      :     1.043206
      py      :     1.043206
      dz2     :     0.003032  d :     0.065765
      dxz     :     0.019900
      dyz     :     0.019900
      dx2y2   :     0.003032
      dxy     :     0.019900

  1 Brs       :     7.838762  s :     7.838762
      pz      :     5.704440  p :    17.113321
      px      :     5.704440
      py      :     5.704440
      dz2     :     2.005845  d :    10.054001
      dxz     :     2.014104
      dyz     :     2.014104
      dx2y2   :     2.005845
      dxy     :     2.014104

  2 H s       :     0.892444  s :     0.892444
      pz      :     0.023776  p :     0.071561
      px      :     0.023776
      py      :     0.024009

  3 H s       :     0.892444  s :     0.892444
      pz      :     0.023776  p :     0.071561
      px      :     0.024009
      py      :     0.023776

  4 H s       :     0.892444  s :     0.892444
      pz      :     0.024009  p :     0.071561
      px      :     0.023776
      py      :     0.023776



                      *****************************
                      * MAYER POPULATION ANALYSIS *
                      *****************************

  NA   - Mulliken gross atomic population
  ZA   - Total nuclear charge
  QA   - Mulliken gross atomic charge
  VA   - Mayer's total valence
  BVA  - Mayer's bonded valence
  FA   - Mayer's free valence

  ATOM       NA         ZA         QA         VA         BVA        FA
  0 C      6.1356     6.0000    -0.1356     3.9278     3.9278     0.0000
  1 Br    35.1646    35.0000    -0.1646     1.0268     1.0268     0.0000
  2 H      0.8999     1.0000     0.1001     0.9728     0.9728     0.0000
  3 H      0.8999     1.0000     0.1001     0.9728     0.9728     0.0000
  4 H      0.8999     1.0000     0.1001     0.9728     0.9728     0.0000

  Mayer bond orders larger than 0.100000
B(  0-C ,  1-Br) :   1.0112 B(  0-C ,  2-H ) :   0.9722 B(  0-C ,  3-H ) :   0.9722 
B(  0-C ,  4-H ) :   0.9722 

-------
TIMINGS
-------

Total SCF time: 0 days 0 hours 0 min 2 sec 

Total time                  ....       2.197 sec
Sum of individual times     ....       2.185 sec  ( 99.5%)

SCF preparation             ....       0.028 sec  (  1.3%)
Fock matrix formation       ....       2.137 sec  ( 97.3%)
  Startup                   ....       0.000 sec  (  0.0% of F)
  Split-RI-J                ....       0.075 sec  (  3.5% of F)
  Chain of spheres X        ....       1.728 sec  ( 80.9% of F)
  XC integration            ....       0.330 sec  ( 15.4% of F)
    Basis function eval.    ....       0.132 sec  ( 39.9% of XC)
    Density eval.           ....       0.061 sec  ( 18.5% of XC)
    XC-Functional eval.     ....       0.051 sec  ( 15.4% of XC)
    XC-Potential eval.      ....       0.070 sec  ( 21.1% of XC)
Diagonalization             ....       0.000 sec  (  0.0%)
Density matrix formation    ....       0.003 sec  (  0.2%)
Total Energy calculation    ....       0.000 sec  (  0.0%)
Population analysis         ....       0.002 sec  (  0.1%)
Orbital Transformation      ....       0.009 sec  (  0.4%)
Orbital Orthonormalization  ....       0.000 sec  (  0.0%)
DIIS solution               ....       0.003 sec  (  0.1%)
SOSCF solution              ....       0.002 sec  (  0.1%)
Finished LeanSCF after   2.2 sec

Maximum memory used throughout the entire LEANSCF-calculation: 7.6 MB

-------------------------   --------------------
FINAL SINGLE POINT ENERGY     -2636.837577563606
-------------------------   --------------------

------------------------------------------------------------------------------
                         ORCA SCF GRADIENT CALCULATION
------------------------------------------------------------------------------

Nuc. rep. gradient        (SHARK) ... done (  0.0 sec)
HCore & Overlap gradient  (SHARK) ... done (  0.0 sec)
Split-RIJ-J gradient      (SHARK) ... done (  0.1 sec)
COSX-gradient                     ... done (  1.2 sec)
XC gradient                       ... done (  0.2 sec)

------------------
CARTESIAN GRADIENT
------------------

   1   C   :   -0.008398351   -0.008398387   -0.008398340
   2   Br  :    0.003438567    0.003438473    0.003438540
   3   H   :    0.004325651   -0.003691378    0.004325612
   4   H   :   -0.003691483    0.004325625    0.004325616
   5   H   :    0.004325616    0.004325668   -0.003691428

Difference to translation invariance:
           :    0.0000000003    0.0000000003    0.0000000003

Difference to rotation invariance:
           :    0.0000001436    0.0000000761   -0.0000004158

Norm of the Cartesian gradient     ...    0.0200053537
RMS gradient                       ...    0.0051653601
MAX gradient                       ...    0.0083983872

-------
TIMINGS
-------

Total SCF gradient time     ....        1.529 sec

Densities                   ....       0.000 sec  (  0.0%)
One electron gradient       ....       0.009 sec  (  0.6%)
RI-J Coulomb gradient       ....       0.117 sec  (  7.6%)
COSX gradient               ....       1.196 sec  ( 78.2%)
XC gradient                 ....       0.206 sec  ( 13.5%)

Maximum memory used throughout the entire SCFGRAD-calculation: 9.2 MB
------------------------------------------------------------------------------
                         ORCA GEOMETRY RELAXATION STEP
------------------------------------------------------------------------------

Reading the OPT-File                    .... done
Getting information on internals        .... done
Copying old internal coords+grads       .... done
Making the new internal coordinates     .... (2022 redundants) done
Validating the new internal coordinates .... (2022 redundants) done
Calculating the B-matrix                .... done
Calculating the G,G- and P matrices     .... done
Transforming gradient to internals      .... done
Projecting the internal gradient        .... done
Number of atoms                         ....   5
Number of internal coordinates          ....  10
Current Energy                          .... -2636.837577564 Eh
Current gradient norm                   ....     0.020005354 Eh/bohr
Maximum allowed component of the step   ....  0.300
Current trust radius                    ....  0.300
Evaluating the initial hessian          ....  (Almloef) done
Projecting the Hessian                  .... done
Forming the augmented Hessian           .... done
Diagonalizing the augmented Hessian     .... done
Last element of RFO vector              ....  0.999178249
Lowest eigenvalues of augmented Hessian:
 -0.000555657  0.270722999  0.292482532  0.292482532  0.311229726
Length of the computed step             ....  0.040565143
The final length of the internal step   ....  0.040565143
Converting the step to Cartesian space:
 Initial RMS(Int)=    0.0128278246
Transforming coordinates:
 Iter   0:  RMS(Cart)=    0.0085150648 RMS(Int)=    0.0128286777
done
Storing new coordinates                 .... done

                                .--------------------.
          ----------------------|Geometry convergence|-------------------------
          Item                value                   Tolerance       Converged
          ---------------------------------------------------------------------
          RMS gradient        0.0043677312            0.0001000000      NO
          MAX gradient        0.0071049473            0.0003000000      NO
          RMS step            0.0128278246            0.0020000000      NO
          MAX step            0.0219647320            0.0040000000      NO
          ........................................................
          Max(Bonds)      0.0116      Max(Angles)    0.15
          Max(Dihed)        0.00      Max(Improp)    0.00
          ---------------------------------------------------------------------

The optimization has not yet converged - more geometry cycles are needed


    ---------------------------------------------------------------------------
                         Redundant Internal Coordinates
                            (Angstroem and degrees)

        Definition                    Value    dE/dq     Step     New-Value
    ----------------------------------------------------------------------------
     1. B(Br  1,C   0)                1.9478  0.005956 -0.0116    1.9362   
     2. B(H   2,C   0)                1.0851 -0.007105  0.0102    1.0954   
     3. B(H   3,C   0)                1.0851 -0.007105  0.0102    1.0954   
     4. B(H   4,C   0)                1.0851 -0.007105  0.0102    1.0954   
     5. A(Br  1,C   0,H   3)          107.57 -0.000832    0.15    107.72   
     6. A(H   2,C   0,H   3)          111.31  0.000771   -0.14    111.16   
     7. A(Br  1,C   0,H   4)          107.57 -0.000832    0.15    107.72   
     8. A(H   2,C   0,H   4)          111.31  0.000771   -0.14    111.16   
     9. A(H   3,C   0,H   4)          111.31  0.000771   -0.14    111.16   
    10. A(Br  1,C   0,H   2)          107.57 -0.000832    0.15    107.72   
    ----------------------------------------------------------------------------

Geometry step timings:
Preparation and reading OPT file:      0.000 s (16.096 %)
Internal coordinates            :      0.000 s ( 3.425 %)
B/P matrices and projection     :      0.000 s (17.808 %)
Hessian update/contruction      :      0.000 s (14.041 %)
Making the step                 :      0.000 s (14.726 %)
Converting the step to Cartesian:      0.000 s ( 5.479 %)
Storing new data                :      0.000 s ( 3.082 %)
Checking convergence            :      0.000 s ( 0.342 %)
Final printing                  :      0.000 s (24.315 %)
Total time                      :      0.000 s

Time for energy+gradient        :      4.186 s
Time for complete geometry iter :      4.205 s

         *************************************************************
         *                GEOMETRY OPTIMIZATION CYCLE   2            *
         *************************************************************
---------------------------------
CARTESIAN COORDINATES (ANGSTROEM)
---------------------------------
  C     -0.012721   -0.012721   -0.012721
  Br     1.105125    1.105125    1.105125
  H     -0.631178    0.646708   -0.631178
  H      0.646708   -0.631178   -0.631178
  H     -0.631178   -0.631178    0.646708

----------------------------
CARTESIAN COORDINATES (A.U.)
----------------------------
  NO LB      ZA    FRAG     MASS         X           Y           Z
   0 C     6.0000    0    12.011   -0.024039   -0.024039   -0.024039
   1 Br   35.0000    0    79.900    2.088384    2.088383    2.088383
   2 H     1.0000    0     1.008   -1.192753    1.222100   -1.192753
   3 H     1.0000    0     1.008    1.222100   -1.192753   -1.192753
   4 H     1.0000    0     1.008   -1.192753   -1.192753    1.222100

--------------------------------
INTERNAL COORDINATES (ANGSTROEM)
--------------------------------
 C      0   0   0     0.000000000000     0.00000000     0.00000000
 Br     1   0   0     1.936165466627     0.00000000     0.00000000
 H      1   2   0     1.095364529073   107.72110069     0.00000000
 H      1   2   3     1.095364583659   107.72109697   120.00000335
 H      1   2   3     1.095364578039   107.72110434   240.00000168

---------------------------
INTERNAL COORDINATES (A.U.)
---------------------------
 C      0   0   0     0.000000000000     0.00000000     0.00000000
 Br     1   0   0     3.658822481881     0.00000000     0.00000000
 H      1   2   0     2.069938976760   107.72110069     0.00000000
 H      1   2   3     2.069939079911   107.72109697   120.00000335
 H      1   2   3     2.069939069291   107.72110434   240.00000168

------------------------------------------------------------------------------
                   ___                                                        
                  /   \      - P O W E R E D   B Y -                         
                 /     \                                                     
                 |  |  |   _    _      __       _____    __    __             
                 |  |  |  | |  | |    /  \     |  _  \  |  |  /  |          
                  \  \/   | |  | |   /    \    | | | |  |  | /  /          
                 / \  \   | |__| |  /  /\  \   | |_| |  |  |/  /          
                |  |  |   |  __  | /  /__\  \  |    /   |      \           
                |  |  |   | |  | | |   __   |  |    \   |  |\   \          
                \     /   | |  | | |  |  |  |  | |\  \  |  | \   \       
                 \___/    |_|  |_| |__|  |__|  |_| \__\ |__|  \__/        
                                                                              
                      - O R C A' S   B I G   F R I E N D -                    
                                      &                                       
                       - I N T E G R A L  F E E D E R -                       
                                                                              
 v1 FN, 2020, v2 2021, v3 2022-2024                                           
------------------------------------------------------------------------------


----------------------
SHARK INTEGRAL PACKAGE
----------------------

Number of atoms                             ...      5
Number of basis functions                   ...     61
Number of shells                            ...     27
Maximum angular momentum                    ...      2
Integral batch strategy                     ... SHARK/LIBINT Hybrid
RI-J (if used) integral strategy            ... SPLIT-RIJ (Revised 2003 algorithm where possible)
Printlevel                                  ...      1
Contraction scheme used                     ... SEGMENTED contraction
Prescreening option                         ... SCHWARTZ
   Thresh                                   ... 2.500e-11
   Tcut                                     ... 2.500e-12
   Tpresel                                  ... 2.500e-12 
Coulomb Range Separation                    ... NOT USED
Exchange Range Separation                   ... NOT USED
Multipole approximations                    ... NOT USED
Finite Nucleus Model                        ... NOT USED
CABS basis                                  ... NOT available
Auxiliary Coulomb fitting basis             ... AVAILABLE
   # of basis functions in Aux-J            ...    207
   # of shells in Aux-J                     ...     81
   Maximum angular momentum in Aux-J        ...      4
Auxiliary J/K fitting basis                 ... NOT available
Auxiliary Correlation fitting basis         ... AVAILABLE
   # of basis functions in Aux-C            ...    217
   # of shells in Aux-C                     ...     67
   Maximum angular momentum in Aux-C        ...      4
Auxiliary 'external' fitting basis          ... NOT available

Checking pre-screening integrals            ... done (  0.0 sec) Dimension = 27
Check shell pair data                       ... done (  0.0 sec)
Shell pair information
Shell pair cut-off parameter TPreSel        ...   2.5e-12
Total number of shell pairs                 ...       378
Shell pairs after pre-screening             ...       375
Total number of primitive shell pairs       ...      1715
Primitive shell pairs kept                  ...      1442
          la=0 lb=0:    103 shell pairs
          la=1 lb=0:    125 shell pairs
          la=1 lb=1:     45 shell pairs
          la=2 lb=0:     56 shell pairs
          la=2 lb=1:     36 shell pairs
          la=2 lb=2:     10 shell pairs

Calculating one electron integrals          ... done (  0.0 sec)
Calculating RI/J V-Matrix + Cholesky decomp.... done (  0.0 sec)
Calculating RI/C V-Matrix + Cholesky decomp.... done (  0.0 sec)
Calculating Nuclear repulsion               ... done (  0.0 sec) ENN=     89.213757577148 Eh

Diagonalization of the overlap matrix:
Smallest eigenvalue                        ... 1.033e-02
Time for diagonalization                   ...    0.000 sec
Threshold for overlap eigenvalues          ... 1.000e-07
Number of eigenvalues below threshold      ... 0
Time for construction of square roots      ...    0.000 sec
Total time needed                          ...    0.001 sec

-------------------
DFT GRID GENERATION
-------------------

General Integration Accuracy     IntAcc      ... 4.388
Radial Grid Type                 RadialGrid  ... OptM3 with GC (2021)
Angular Grid (max. ang.)         AngularGrid ... 4 (Lebedev-302)
Angular grid pruning method      GridPruning ... 4 (adaptive)
Weight generation scheme         WeightScheme... mBecke (2022)
Basis function cutoff            BFCut       ... 1.0000e-11
Integration weight cutoff        WCut        ... 1.0000e-14
Partially contracted basis set               ... off
Rotationally invariant grid construction     ... off
Angular grids for H and He will be reduced by one unit
Core-polarized basis detected: some atoms will have their core
                               angular grid increased.

Total number of grid points                  ...    27273
Total number of batches                      ...      429
Average number of points per batch           ...       63
Average number of grid points per atom       ...     5455

--------------------
COSX GRID GENERATION
--------------------

GRIDX 1
-------
General Integration Accuracy     IntAcc      ... 3.816
Radial Grid Type                 RadialGrid  ... OptM3 with GC (2021)
Angular Grid (max. ang.)         AngularGrid ... 1 (Lebedev-50)
Angular grid pruning method      GridPruning ... 4 (adaptive)
Weight generation scheme         WeightScheme... mBecke (2022)
Basis function cutoff            BFCut       ... 1.0000e-11
Integration weight cutoff        WCut        ... 1.0000e-14
Partially contracted basis set               ... on
Rotationally invariant grid construction     ... off
Angular grids for H and He will be reduced by one unit
Core-polarized basis detected: some atoms will have their core
                               angular grid increased.

Total number of grid points                  ...     8258
Total number of batches                      ...       67
Average number of points per batch           ...      123
Average number of grid points per atom       ...     1652
UseSFitting                                  ... on

GRIDX 2
-------
General Integration Accuracy     IntAcc      ... 4.020
Radial Grid Type                 RadialGrid  ... OptM3 with GC (2021)
Angular Grid (max. ang.)         AngularGrid ... 2 (Lebedev-110)
Angular grid pruning method      GridPruning ... 4 (adaptive)
Weight generation scheme         WeightScheme... mBecke (2022)
Basis function cutoff            BFCut       ... 1.0000e-11
Integration weight cutoff        WCut        ... 1.0000e-14
Partially contracted basis set               ... on
Rotationally invariant grid construction     ... off
Angular grids for H and He will be reduced by one unit
Core-polarized basis detected: some atoms will have their core
                               angular grid increased.

Total number of grid points                  ...    10441
Total number of batches                      ...       85
Average number of points per batch           ...      122
Average number of grid points per atom       ...     2088
UseSFitting                                  ... on

GRIDX 3
-------
General Integration Accuracy     IntAcc      ... 4.338
Radial Grid Type                 RadialGrid  ... OptM3 with GC (2021)
Angular Grid (max. ang.)         AngularGrid ... 3 (Lebedev-194)
Angular grid pruning method      GridPruning ... 4 (adaptive)
Weight generation scheme         WeightScheme... mBecke (2022)
Basis function cutoff            BFCut       ... 1.0000e-11
Integration weight cutoff        WCut        ... 1.0000e-14
Partially contracted basis set               ... on
Rotationally invariant grid construction     ... off
Angular grids for H and He will be reduced by one unit
Core-polarized basis detected: some atoms will have their core
                               angular grid increased.

Total number of grid points                  ...    15612
Total number of batches                      ...      124
Average number of points per batch           ...      125
Average number of grid points per atom       ...     3122
UseSFitting                                  ... on
Initializing property integral containers    ... done (  0.0 sec)

SHARK setup successfully completed in   0.2 seconds

Maximum memory used throughout the entire STARTUP-calculation: 13.9 MB
------------------------------------------------------------------------------
                          ORCA RELATIVISTIC HAMILTONIAN
------------------------------------------------------------------------------

Relativistic Method            ... DKH
Order of DKH treatment         ...   2
Treatment of potential         ... V(e,N)
Eps parameter for DKH          ...   0.00000000010000
Nucleus model                  ... Point Nucleus
Speed of light used            ... 137.03598950000000


            ************************************************
            *        DOUGLAS-KROLL-HESS HAMILTONIAN        *
            *   Programmed by FN according to literature   *
            *        procedures. Special thanks to         *
            *       B.A. Hess, M. Reiher and A. Wolf       *
            *     University Erlangen-Nuernberg/Bonn       *
            ************************************************

Uncontracting the basis (first version)        ... done
Number of contracted basis functions           ...   61
Number of uncontracted basis functions         ...  119
Initializing the DKH file                      ... done
One center approximation for DKH is active
Finding unique atoms                      ... 3 atom types
 ATOMIC NUMBER   6
          ... doing integrals
          ... Computing the DKH transformation
          ... Transforming V and pVp to p**2 space
          ... First transformation of V and pVp
          ... Second transformation of Veff
          ... Adding kinetic energy
          ... Back transformation of Veff to r-space
          ... Recontracting the H-matrix
          ... Computing the DKH correction to the H-matrix
          ... adding submatrics to 1 actual atoms
 ATOMIC NUMBER  35
          ... doing integrals
          ... Computing the DKH transformation
          ... Transforming V and pVp to p**2 space
          ... First transformation of V and pVp
          ... Second transformation of Veff
          ... Adding kinetic energy
          ... Back transformation of Veff to r-space
          ... Recontracting the H-matrix
          ... Computing the DKH correction to the H-matrix
          ... adding submatrics to 1 actual atoms
 ATOMIC NUMBER   1
          ... doing integrals
          ... Computing the DKH transformation
          ... Transforming V and pVp to p**2 space
          ... First transformation of V and pVp
          ... Second transformation of Veff
          ... Adding kinetic energy
          ... Back transformation of Veff to r-space
          ... Recontracting the H-matrix
          ... Computing the DKH correction to the H-matrix
          ... adding submatrics to 3 actual atoms
Storing DKH matrices                           ... done
Getting S**(-1/2)                              ... done
Reading the original H-matrix                  ... done
Adding DKH correction to the H-matrix          ... done
Storing the new modified H-matrix              ... done

Maximum memory used throughout the entire REL-calculation: 14.0 MB
Occupation numbers will be reassigned to an Aufbau configuration
             **** ENERGY FILE WAS UPDATED (CH3Br.en.tmp) ****
Finished Guess after   0.0 sec
Maximum memory used throughout the entire GUESS-calculation: 6.7 MB
----------------------------------------D-I-I-S--------------------------------------------
Iteration    Energy (Eh)           Delta-E    RMSDP     MaxDP     DIISErr   Damp  Time(sec)
-------------------------------------------------------------------------------------------
               ***  Starting incremental Fock matrix formation  ***
                              *** Initializing SOSCF ***
---------------------------------------S-O-S-C-F--------------------------------------
Iteration    Energy (Eh)           Delta-E    RMSDP     MaxDP     MaxGrad    Time(sec)
--------------------------------------------------------------------------------------
    1    -2636.8378798347980592     0.00e+00  3.66e-04  4.53e-03  4.42e-04     0.2
               *** Restarting incremental Fock matrix formation ***
    2    -2636.8379456118295820    -6.58e-05  1.47e-04  1.82e-03  6.39e-04     0.2
    3    -2636.8379496256966377    -4.01e-06  6.77e-05  7.30e-04  4.81e-04     0.2
    4    -2636.8379509960568612    -1.37e-06  2.80e-05  1.81e-04  1.55e-04     0.2
    5    -2636.8379513937825323    -3.98e-07  5.76e-06  1.05e-04  3.08e-05     0.2
    6    -2636.8379514028947597    -9.11e-09  2.32e-06  3.98e-05  1.34e-05     0.2
                 **** Energy Check signals convergence ****

               *****************************************************
               *                     SUCCESS                       *
               *           SCF CONVERGED AFTER   6 CYCLES          *
               *****************************************************

Recomputing exchange energy using gridx3       ... done (    0.276 sec)
Old exchange energy                            :    -23.985827722 Eh
New exchange energy                            :    -23.985764300 Eh
Exchange energy change after final integration :      0.000063423 Eh
Total energy after final integration           :  -2636.837887980 Eh
             **** ENERGY FILE WAS UPDATED (CH3Br.en.tmp) ****

----------------
TOTAL SCF ENERGY
----------------

Total Energy       :      -2636.83788798031765 Eh          -71752.00673 eV

Components:
Nuclear Repulsion  :         89.21375757714777 Eh            2427.62976 eV
Electronic Energy  :      -2726.05170898004235 Eh          -74179.63822 eV
One Electron Energy:      -3838.66033936508393 Eh         -104455.25824 eV
Two Electron Energy:       1112.60863038504158 Eh           30275.62002 eV

Virial components:
Potential Energy   :      -5249.94023911873410 Eh         -142858.13667 eV
Kinetic Energy     :       2613.10235113841645 Eh           71106.12994 eV
Virial Ratio       :          2.00908327866743

DFT components:
N(Alpha)           :       22.000004189750 electrons
N(Beta)            :       22.000004189750 electrons
N(Total)           :       44.000008379501 electrons
E(X)               :      -71.651902123774 Eh       
E(C)               :       -2.002047686987 Eh       
E(XC)              :      -73.653949810761 Eh       

---------------
SCF CONVERGENCE
---------------

  Last Energy change         ...    9.1122e-09  Tolerance :   1.0000e-08
  Last MAX-Density change    ...    3.9838e-05  Tolerance :   1.0000e-07
  Last RMS-Density change    ...    2.3179e-06  Tolerance :   5.0000e-09
  Last DIIS Error            ...    2.5538e-03  Tolerance :   5.0000e-07
  Last Orbital Gradient      ...    1.3430e-05  Tolerance :   1.0000e-05
  Last Orbital Rotation      ...    9.8030e-06  Tolerance :   1.0000e-05


Total SCF time: 0 days 0 hours 0 min 1 sec 
Finished LeanSCF after   1.7 sec

Maximum memory used throughout the entire LEANSCF-calculation: 7.8 MB

-------------------------   --------------------
FINAL SINGLE POINT ENERGY     -2636.837887980318
-------------------------   --------------------

------------------------------------------------------------------------------
                         ORCA SCF GRADIENT CALCULATION
------------------------------------------------------------------------------

Nuc. rep. gradient        (SHARK) ... done (  0.0 sec)
HCore & Overlap gradient  (SHARK) ... done (  0.0 sec)
Split-RIJ-J gradient      (SHARK) ... done (  0.1 sec)
COSX-gradient                     ... done (  1.2 sec)
XC gradient                       ... done (  0.2 sec)

------------------
CARTESIAN GRADIENT
------------------

   1   C   :   -0.003142198   -0.003142173   -0.003142188
   2   Br  :    0.001307135    0.001307154    0.001307124
   3   H   :    0.000503606    0.000827843    0.000503640
   4   H   :    0.000827866    0.000503550    0.000503559
   5   H   :    0.000503591    0.000503626    0.000827866

Difference to translation invariance:
           :   -0.0000000005    0.0000000001    0.0000000003

Difference to rotation invariance:
           :   -0.0000000833    0.0000001038   -0.0000000437

Norm of the Cartesian gradient     ...    0.0061906000
RMS gradient                       ...    0.0015984061
MAX gradient                       ...    0.0031421983

-------
TIMINGS
-------

Total SCF gradient time     ....        1.512 sec

Densities                   ....       0.000 sec  (  0.0%)
One electron gradient       ....       0.007 sec  (  0.4%)
RI-J Coulomb gradient       ....       0.102 sec  (  6.8%)
COSX gradient               ....       1.190 sec  ( 78.7%)
XC gradient                 ....       0.213 sec  ( 14.1%)

Maximum memory used throughout the entire SCFGRAD-calculation: 9.2 MB
------------------------------------------------------------------------------
                         ORCA GEOMETRY RELAXATION STEP
------------------------------------------------------------------------------

Reading the OPT-File                    .... done
Getting information on internals        .... done
Copying old internal coords+grads       .... done
Making the new internal coordinates     .... (2022 redundants) done
Validating the new internal coordinates .... (2022 redundants) done
Calculating the B-matrix                .... done
Calculating the G,G- and P matrices     .... done
Transforming gradient to internals      .... done
Projecting the internal gradient        .... done
Number of atoms                         ....   5
Number of internal coordinates          ....  10
Current Energy                          .... -2636.837887980 Eh
Current gradient norm                   ....     0.006190600 Eh/bohr
Maximum allowed component of the step   ....  0.300
Current trust radius                    ....  0.300
Updating the Hessian (BFGS)             .... done
Forming the augmented Hessian           .... done
Diagonalizing the augmented Hessian     .... done
Last element of RFO vector              ....  0.999867699
Lowest eigenvalues of augmented Hessian:
 -0.000058007  0.205983655  0.292482532  0.292482532  0.298926465
Length of the computed step             ....  0.016268177
The final length of the internal step   ....  0.016268177
Converting the step to Cartesian space:
 Initial RMS(Int)=    0.0051444492
Transforming coordinates:
 Iter   0:  RMS(Cart)=    0.0024440532 RMS(Int)=    0.0051510740
done
Storing new coordinates                 .... done
The predicted energy change is          ....    -0.000029011
[...]
  0-1A  ->  2-1A    6.509570   52503.2   190.5   0.000032071   0.00020   0.01146  -0.00715  -0.00431
  0-1A  ->  3-3A    8.073990   65121.1   153.6   0.000000000   0.00000   0.00000   0.00000   0.00000
  0-1A  ->  3-1A    8.701249   70180.3   142.5   0.000069574   0.00033  -0.00149  -0.01197   0.01345

----------------------------------------------------------------------------------------------------
                     ABSORPTION SPECTRUM VIA TRANSITION VELOCITY DIPOLE MOMENTS    
----------------------------------------------------------------------------------------------------
     Transition      Energy     Energy  Wavelength fosc(P2)      P2        PX        PY        PZ   
                      (eV)      (cm-1)    (nm)                 (au**2)    (au)      (au)      (au)  
----------------------------------------------------------------------------------------------------
  0-1A  ->  1-3A    5.673675   45761.3   218.5   0.000000000   0.00000   0.00000   0.00000   0.00000
  0-1A  ->  2-3A    5.673676   45761.3   218.5   0.000000000   0.00000   0.00000   0.00000   0.00000
  0-1A  ->  1-1A    6.509568   52503.2   190.5   0.015729233   0.00564   0.00870   0.04824  -0.05694
  0-1A  ->  2-1A    6.509570   52503.2   190.5   0.015725806   0.00564   0.06072  -0.03789  -0.02283
  0-1A  ->  3-3A    8.073990   65121.1   153.6   0.000000000   0.00000   0.00000   0.00000   0.00000
  0-1A  ->  3-1A    8.701249   70180.3   142.5   0.000071146   0.00003  -0.00048  -0.00387   0.00435

------------------------------------------------------------------------------------------
                     CD SPECTRUM VIA TRANSITION ELECTRIC DIPOLE MOMENTS    
------------------------------------------------------------------------------------------
     Transition      Energy     Energy  Wavelength    R        MX        MY        MZ   
                      (eV)      (cm-1)    (nm)   (1e40*cgs)   (au)      (au)      (au)  
------------------------------------------------------------------------------------------
  0-1A  ->  1-3A    5.673675   45761.3   218.5   -0.00000   0.00000   0.00000   0.00000
  0-1A  ->  2-3A    5.673676   45761.3   218.5   -0.00000   0.00000   0.00000   0.00000
  0-1A  ->  1-1A    6.509568   52503.2   190.5   -0.00007   0.17477  -0.10905  -0.06571
  0-1A  ->  2-1A    6.509570   52503.2   190.5    0.00007  -0.02501  -0.13870   0.16371
  0-1A  ->  3-3A    8.073990   65121.1   153.6   -0.00000   0.00000   0.00000   0.00000
  0-1A  ->  3-1A    8.701249   70180.3   142.5   -0.00003   0.30235  -0.17769  -0.12466

------------------------------------------------------------------------------------------
                     CD SPECTRUM VIA TRANSITION VELOCITY DIPOLE MOMENTS    
------------------------------------------------------------------------------------------
     Transition      Energy     Energy  Wavelength    R        MX        MY        MZ   
                      (eV)      (cm-1)    (nm)   (1e40*cgs)   (au)      (au)      (au)  
------------------------------------------------------------------------------------------
  0-1A  ->  1-3A    5.673675   45761.3   218.5    0.00000   0.00000   0.00000   0.00000
  0-1A  ->  2-3A    5.673676   45761.3   218.5    0.00000   0.00000   0.00000   0.00000
  0-1A  ->  1-1A    6.509568   52503.2   190.5    0.00113   0.17477  -0.10905  -0.06571
  0-1A  ->  2-1A    6.509570   52503.2   190.5   -0.00114  -0.02501  -0.13870   0.16371
  0-1A  ->  3-3A    8.073990   65121.1   153.6    0.00000   0.00000   0.00000   0.00000
  0-1A  ->  3-1A    8.701249   70180.3   142.5   -0.00003   0.30235  -0.17769  -0.12466

-------------------------------------------
SOC CORRECTED TD-DFT/TDA-EXCITATION SPECTRA
--------------------------------------------
Generating SOC_CIS transition densities           ... done 

--------------------------------------------------------------------------------------------------------
      SOC CORRECTED ABSORPTION SPECTRUM VIA TRANSITION ELECTRIC DIPOLE MOMENTS    
--------------------------------------------------------------------------------------------------------
      Transition         Energy     Energy  Wavelength fosc(D2)      D2       |DX|      |DY|      |DZ|  
                          (eV)      (cm-1)    (nm)                 (au**2)    (au)      (au)      (au)  
--------------------------------------------------------------------------------------------------------
  0-1.0A  ->  1-3.0A    5.546419   44734.9   223.5   0.000000125   0.00000   0.00008   0.00063   0.00071
  0-1.0A  ->  2-3.0A    5.546419   44734.9   223.5   0.000000125   0.00000   0.00078   0.00046   0.00032
  0-1.0A  ->  3-3.0A    5.651707   45584.1   219.4   0.000000530   0.00000   0.00015   0.00130   0.00145
  0-1.0A  ->  4-3.0A    5.651715   45584.2   219.4   0.000000514   0.00000   0.00157   0.00091   0.00066
  0-1.0A  ->  5-3.0A    5.791655   46712.9   214.1   0.000000000   0.00000   0.00000   0.00000   0.00000
  0-1.0A  ->  6-3.0A    5.805708   46826.2   213.6   0.000184151   0.00129   0.02077   0.02077   0.02077
  0-1.0A  ->  7-1.0A    6.519813   52585.8   190.2   0.000032072   0.00020   0.00174   0.00903   0.01078
  0-1.0A  ->  8-1.0A    6.519814   52585.9   190.2   0.000032086   0.00020   0.01144   0.00723   0.00421
  0-1.0A  ->  9-3.0A    8.083267   65196.0   153.4   0.000000000   0.00000   0.00000   0.00000   0.00000
  0-1.0A  -> 10-3.0A    8.085549   65214.4   153.3   0.000000562   0.00000   0.00014   0.00112   0.00125
  0-1.0A  -> 11-3.0A    8.085706   65215.6   153.3   0.000000386   0.00000   0.00113   0.00067   0.00047
  0-1.0A  -> 12-1.0A    8.701415   70181.7   142.5   0.000069306   0.00033   0.00148   0.01194   0.01343

--------------------------------------------------------------------------------------------------------
      SOC CORRECTED ABSORPTION SPECTRUM VIA TRANSITION VELOCITY DIPOLE MOMENTS    
--------------------------------------------------------------------------------------------------------
      Transition         Energy     Energy  Wavelength fosc(P2)      P2       |PX|      |PY|      |PZ|  
                          (eV)      (cm-1)    (nm)                 (au**2)    (au)      (au)      (au)  
--------------------------------------------------------------------------------------------------------
  0-1.0A  ->  1-3.0A    5.546419   44734.9   223.5   0.000000001   0.00000   0.00000   0.00001   0.00001
  0-1.0A  ->  2-3.0A    5.546419   44734.9   223.5   0.000000001   0.00000   0.00001   0.00001   0.00001
  0-1.0A  ->  3-3.0A    5.651707   45584.1   219.4   0.000366398   0.00011   0.00081   0.00712   0.00793
  0-1.0A  ->  4-3.0A    5.651715   45584.2   219.4   0.000365661   0.00011   0.00868   0.00504   0.00364
  0-1.0A  ->  5-3.0A    5.791655   46712.9   214.1   0.000000000   0.00000   0.00000   0.00000   0.00000
  0-1.0A  ->  6-3.0A    5.805708   46826.2   213.6   0.000000000   0.00000   0.00000   0.00000   0.00000
  0-1.0A  ->  7-1.0A    6.519813   52585.8   190.2   0.015293433   0.00550   0.00912   0.04726   0.05639
  0-1.0A  ->  8-1.0A    6.519814   52585.9   190.2   0.015290150   0.00550   0.05984   0.03782   0.02202
  0-1.0A  ->  9-3.0A    8.083267   65196.0   153.4   0.000000000   0.00000   0.00000   0.00000   0.00000
  0-1.0A  -> 10-3.0A    8.085549   65214.4   153.3   0.000063321   0.00003   0.00044   0.00352   0.00396
  0-1.0A  -> 11-3.0A    8.085706   65215.6   153.3   0.000065563   0.00003   0.00439   0.00258   0.00181
  0-1.0A  -> 12-1.0A    8.701415   70181.7   142.5   0.000072790   0.00003   0.00049   0.00391   0.00440

----------------------------------------------------------------------------------------------
      SOC CORRECTED CD SPECTRUM VIA TRANSITION ELECTRIC DIPOLE MOMENTS    
----------------------------------------------------------------------------------------------
      Transition         Energy     Energy  Wavelength    R       |MX|      |MY|      |MZ|  
                          (eV)      (cm-1)    (nm)    (1e40*cgs)  (au)      (au)      (au)  
----------------------------------------------------------------------------------------------
  0-1.0A  ->  1-3.0A    5.546419   44734.9   223.5    0.00000   0.00004   0.00003   0.00002
  0-1.0A  ->  2-3.0A    5.546419   44734.9   223.5   -0.00000   0.00000   0.00003   0.00003
  0-1.0A  ->  3-3.0A    5.651707   45584.1   219.4   -0.00001   0.02416   0.01403   0.01013
  0-1.0A  ->  4-3.0A    5.651715   45584.2   219.4    0.00001   0.00230   0.02017   0.02247
  0-1.0A  ->  5-3.0A    5.791655   46712.9   214.1    0.00000   0.00799   0.00799   0.00799
  0-1.0A  ->  6-3.0A    5.805708   46826.2   213.6   -0.00000   0.00000   0.00000   0.00000
  0-1.0A  ->  7-1.0A    6.519813   52585.8   190.2   -0.00009   0.17291   0.10928   0.06364
  0-1.0A  ->  8-1.0A    6.519814   52585.9   190.2    0.00008   0.02634   0.13643   0.16277
  0-1.0A  ->  9-3.0A    8.083267   65196.0   153.4   -0.00000   0.00051   0.00051   0.00051
  0-1.0A  -> 10-3.0A    8.085549   65214.4   153.3   -0.00000   0.00834   0.00490   0.00344
  0-1.0A  -> 11-3.0A    8.085706   65215.6   153.3   -0.00000   0.00035   0.00285   0.00320
  0-1.0A  -> 12-1.0A    8.701415   70181.7   142.5   -0.00003   0.30217   0.17758   0.12458

----------------------------------------------------------------------------------------------
      SOC CORRECTED CD SPECTRUM VIA TRANSITION VELOCITY DIPOLE MOMENTS    
----------------------------------------------------------------------------------------------
      Transition         Energy     Energy  Wavelength    R       |MX|      |MY|      |MZ|  
                          (eV)      (cm-1)    (nm)    (1e40*cgs)  (au)      (au)      (au)  
----------------------------------------------------------------------------------------------
  0-1.0A  ->  1-3.0A    5.546419   44734.9   223.5   -0.00000   0.00004   0.00003   0.00002
  0-1.0A  ->  2-3.0A    5.546419   44734.9   223.5    0.00000   0.00000   0.00003   0.00003
  0-1.0A  ->  3-3.0A    5.651707   45584.1   219.4    0.00011   0.02416   0.01403   0.01013
  0-1.0A  ->  4-3.0A    5.651715   45584.2   219.4   -0.00012   0.00230   0.02017   0.02247
  0-1.0A  ->  5-3.0A    5.791655   46712.9   214.1   -0.00000   0.00799   0.00799   0.00799
  0-1.0A  ->  6-3.0A    5.805708   46826.2   213.6   -0.00000   0.00000   0.00000   0.00000
  0-1.0A  ->  7-1.0A    6.519813   52585.8   190.2    0.00138   0.17291   0.10928   0.06364
  0-1.0A  ->  8-1.0A    6.519814   52585.9   190.2   -0.00139   0.02634   0.13643   0.16277
  0-1.0A  ->  9-3.0A    8.083267   65196.0   153.4   -0.00000   0.00051   0.00051   0.00051
  0-1.0A  -> 10-3.0A    8.085549   65214.4   153.3    0.00000   0.00834   0.00490   0.00344
  0-1.0A  -> 11-3.0A    8.085706   65215.6   153.3   -0.00000   0.00035   0.00285   0.00320
  0-1.0A  -> 12-1.0A    8.701415   70181.7   142.5   -0.00003   0.30217   0.17758   0.12458

Total run time:        1.303 sec

           *** ORCA-CIS/TD-DFT FINISHED WITHOUT ERROR ***

---------------------------
SOC CIS/TD-DFT TOTAL ENERGY
---------------------------

    E(SCF)        =  -2636.837952252 Eh
    E(SOC CIS)    =      0.203827142 Eh (SOC Root  1)
    ----------------------------- ---------
    E(tot)        =  -2636.634125110 Eh


Maximum memory used throughout the entire CIS-calculation: 9.4 MB
=> NOW LEAVING ORCA_CIS

-------------------------   --------------------
FINAL SINGLE POINT ENERGY     -2636.634125110316
-------------------------   --------------------


------------------------------------------------------------------------------
                              ORCA PROPERTY CALCULATIONS
------------------------------------------------------------------------------

GBWName                                 ... CH3Br_job2.gbw
Number of atoms                         ...      5
Number of basis functions               ...     61
Max core memory                         ...   1024 MB

Electric properties:
Dipole moment                           ... YES
Quadrupole moment                       ...  NO
Static polarizability (Dipole/Dipole)   ...  NO
Static polarizability (Dipole/Quad.)    ...  NO
Static polarizability (Quad./Quad.)     ...  NO
Static polarizability (Velocity)        ...  NO

Atomic electric properties:
Dipole moment                           ...  NO
Quadrupole moment                       ...  NO
Static polarizability                   ...  NO

Choice of electric origin               ... Center of mass
Position of electric origin             ...     1.743043     1.743044     1.743043

General magnetic properties:
Magnetizability                         ...  NO

EPR properties:
g-Tensor (aka g-matrix)                 ...  NO
Zero-Field splitting spin-orbit         ...  NO
Zero-field splitting spin-spin          ...  NO
Hyperfine couplings                     ...  NO (   0 nuclei)
Quadrupole couplings                    ...  NO (   0 nuclei)
Contact density                         ...  NO (   0 nuclei)

NMR properties:
Chemical shifts                         ...  NO (   0 nuclei)
Spin-rotation constants                 ...  NO (   0 nuclei)
Spin-spin couplings                     ...  NO (   0 nuclei,    0 pairs)

Choice of magnetic origin               ... GIAO
Position of magnetic origin             ...     0.000000     0.000000     0.000000

Properties with geometric perturbations:
SCF Hessian                             ...  NO
IR spectrum                             ...  NO
VCD spectrum                            ...  NO
X-ray spectroscopy properties:
SCF XES/XAS/RIXS spectra                ...  NO


-------------
DIPOLE MOMENT
-------------

Method             : SCF
Type of density    : Electron Density
Multiplicity       :   1
Irrep              :   0
Energy             : -2636.8379522520972387 Eh
Relativity type    : 
Basis              : AO
                                X                 Y                 Z
Electronic contribution:      4.476521904       4.476522746       4.476521863
Nuclear contribution   :     -4.872850431      -4.872851169      -4.872850299
                        -----------------------------------------
Total Dipole Moment    :     -0.396328527      -0.396328423      -0.396328436
                        -----------------------------------------
Magnitude (a.u.)       :      0.686461033
Magnitude (Debye)      :      1.744845280



--------------------
Rotational spectrum 
--------------------
 
Rotational constants in cm-1:             5.156310             0.322249             0.322249 
Rotational constants in MHz :        154582.287821          9660.772389          9660.772356 

Dipole components along the rotational axes: 
x,y,z [a.u.] :     0.686461     0.000000     0.000000 
x,y,z [Debye]:     1.744845     0.000000     0.000000 

 

Dipole moment calculation done in   0.0 sec 

Maximum memory used throughout the entire PROP-calculation: 5.1 MB

--------------------------------
SUGGESTED CITATIONS FOR THIS RUN
--------------------------------

Below you find a list of papers that are relevant to this ORCA run
We neither can nor want to force you to cite these papers, but we appreciate if you do
You receive ORCA, which is the product of decades of hard work by many enthusiastic individuals, for free
The only thing we kindly ask in return is that you cite our papers,
We deeply appreciate it, if you show your appreciation for ORCA by not just citing the generic ORCA reference.

Please note that relegating all ORCA citations to the supporting information does *not* help us.
SI sections are not indexed - citations you put there will not count into any citation statistics
But we need these citations in order to attract the funding resources that allow us to do what we are doing

Therefore, if you are a happy ORCA user, please consider citing a few of the papers listed below in the main body of your paper

In addition to the list printed below, the program has created the file CH3Br_job2.bibtex that contains the list in bibtex format
You can import this file easily into all common literature databanks and citation aid programs


List of essential papers. We consider these as the minimum necessary citations

  1. Neese,F.
     Software update: the ORCA program system, version 5.0
     WIRES Comput. Molec. Sci., 2022 12(1)e1606
     doi.org/10.1002/wcms.1606

List of papers to cite with high priority. The work reported in these papers was absolutely
necessary for this run to complete.
Our perspective: the developers of density functionals and basis sets usually get cited in chemistry papers
Good! But without the algorithms to do something with them, the functionals or basis sets would not do anything.
Hence, in our opinion, the algorithm design and method developments papers are equally worthy of getting cited

  1. Neese,F.; Olbrich,G.
     Efficient use of the resolution of the identity approximation in time-dependent density functional calculations with hybrid density functionals
     Chem. Phys. Lett., 2002 362 170-178
     doi.org/10.1016/s0009-2614(02)01053-9
  2. Neese,F.
     An improvement of the resolution of the identity approximation for the formation of the Coulomb matrix
     J. Comp. Chem., 2003 24(14)1740-1747
     doi.org/10.1002/jcc.10318
  3. Neese,F.; Wennmohs,F.; Hansen,A.; Becker,U.
     Efficient, approximate and parallel Hartree-Fock and hybrid DFT calculations. A 'chain-of-spheres' algorithm for the Hartree-Fock exchange
     Chem. Phys., 2009 356(1-3)98-109
     doi.org/10.1016/j.chemphys.2008.10.036
  4. Helmich-Paris,B.; de Souza,B.; Neese,F.; Izsák,R.
     An improved chain of spheres for exchange algorithm
     J. Chem. Phys., 2021 155 104109
     doi.org/doi: 10.1063/5.0058766.
  5. Neese,F.
     The SHARK Integral Generation and Digestion System
     J. Comp. Chem., 2022  1-16
     doi.org/10.1002/jcc.26942

List of suggested additional citations. These are papers that are important in the 'surrounding' of 
of this run, or papers that preceded the highly important papers. If you like your results we are grateful for a citation.

  1. Izsak,R.; Neese,F.
     An overlap fitted chain of spheres exchange method
     J. Chem. Phys., 2011 135 144105
     doi.org/10.1063/1.3646921
  2. Izsak,R.; Hansen,A.; Neese,F.
     The resolution of identity and chain of spheres approximations for the LPNO-CCSD singles Fock term
     Molec. Phys., 2012 110 2413-2417
     doi.org/10.1080/00268976.2012.687466
  3. Neese,F.
     The ORCA program system
     WIRES Comput. Molec. Sci., 2012 2(1)73-78
     doi.org/10.1002/wcms.81
  4. Izsak,R.; Neese,F.; Klopper,W.
     Robust fitting techniques in the chain of spheres approximation to the Fock exchange: The role of the complementary space
     J. Chem. Phys., 2013 139 
     doi.org/10.1063/1.4819264
  5. Neese,F.
     Software update: the ORCA program system, version 4.0
     WIRES Comput. Molec. Sci., 2018 8(1)1-6
     doi.org/10.1002/wcms.1327
  6. Neese,F.; Wennmohs,F.; Becker,U.; Riplinger,C.
     The ORCA quantum chemistry program package
     J. Chem. Phys., 2020 152 Art. No. L224108
     doi.org/10.1063/5.0004608

List of optional additional citations

  1. Neese,F.
     Approximate second-order SCF convergence for spin unrestricted wavefunctions
     Chem. Phys. Lett., 2000 325(1-3)93-98
     doi.org/10.1016/s0009-2614(00)00662-x

Timings for individual modules:

Sum of individual times          ...        3.034 sec (=   0.051 min)
Startup calculation              ...        0.163 sec (=   0.003 min)   5.4 %
Relativistic integrals           ...        0.184 sec (=   0.003 min)   6.1 %
SCF iterations                   ...        0.861 sec (=   0.014 min)  28.4 %
Property integrals               ...        0.479 sec (=   0.008 min)  15.8 %
Property calculations            ...        0.027 sec (=   0.000 min)   0.9 %
CIS module                       ...        1.320 sec (=   0.022 min)  43.5 %



                             ****ORCA TERMINATED NORMALLY****
TOTAL RUN TIME: 0 days 0 hours 0 minutes 22 seconds 462 msec
