[Molden Format]
[Title]
 Molden file created by orca_2mkl for BaseName=CH3Br

[Atoms] AU
C    1   6         -0.0133110061        -0.0133113270        -0.0133109429 
Br   2  35          2.0878433660         2.0878436661         2.0878433119 
H    3   1         -1.1933579244         1.2131237342        -1.1933579166 
H    4   1          1.2131234111        -1.1933581740        -1.1933581132 
H    5   1         -1.1933581570        -1.1933582099         1.2131233502 
[GTO]
  1 0
s   5 1.0 
     1238.4016938000         0.8208956682
      186.2900499200         1.4766449896
       42.2511763460         2.1526124058
       11.6765579320         2.1081722461
        3.5930506482         0.8290999933
s   1 1.0 
        0.4024514736         0.3601183351
s   1 1.0 
        0.1309018267         0.1551027052
p   3 1.0 
        9.4680970621         1.3467645142
        2.0103545142         1.0678070931
        0.5477100471         0.5108735714
p   1 1.0 
        0.1526861379         0.1360471976
d   1 1.0 
        0.8000000000         1.9292013661

  2 0
s   6 1.0 
   113286.3877600000         7.5076141183
    17009.6263030000        13.8835270484
     3870.1842567000        22.7307285566
     1093.0357227000        30.8227297499
      356.3972179700        27.2481937511
      123.1253964300         9.6953381145
s   3 1.0 
      236.7408400700        -4.7631125758
       28.4686610700         5.6113863182
       11.8834437220         1.9900291396
s   3 1.0 
       21.2696333120        -1.5429794477
        3.6129226841         1.3310800628
        1.6626648969         0.4300130345
s   1 1.0 
        0.3482379323         0.3230852630
s   1 1.0 
        0.1301903139         0.1544699827
p   5 1.0 
     1560.2801881000       115.0180051576
      368.4785920500       143.9035925417
      117.2297884900       137.5255986684
       42.6489092480        78.9578527439
       16.0872250960        15.8580577654
p   3 1.0 
        8.6352810058         6.8437546680
        3.5613665502         3.7974971038
        1.5292626609         0.5585414278
p   1 1.0 
        0.5306429485         0.6455696201
p   1 1.0 
        0.1570275896         0.1408996918
d   4 1.0 
      104.8551864200       261.4493931636
       30.2811436880       176.6993802449
       10.6513942670        76.9545600188
        3.8699456233        17.5937671387
d   1 1.0 
        1.3240876762         4.6593398042
d   1 1.0 
        0.3890000000         0.5462379705

  3 0
s   3 1.0 
       13.0107010000         0.1634903809
        1.9622572000         0.2773515510
        0.4445379600         0.3157501452
s   1 1.0 
        0.1219496200         0.1470772262
p   1 1.0 
        0.8000000000         1.0784563492

  4 0
s   3 1.0 
       13.0107010000         0.1634903809
        1.9622572000         0.2773515510
        0.4445379600         0.3157501452
s   1 1.0 
        0.1219496200         0.1470772262
p   1 1.0 
        0.8000000000         1.0784563492

  5 0
s   3 1.0 
       13.0107010000         0.1634903809
        1.9622572000         0.2773515510
        0.4445379600         0.3157501452
s   1 1.0 
        0.1219496200         0.1470772262
p   1 1.0 
        0.8000000000         1.0784563492

[5D]
[7F]
[9G]
[MO]
 Sym=     1a
 Ene= -4.89202155883404E+02
 Spin= Alpha
 Occup= 2.000000
  1      -0.000000000000
  2       0.000000000000
  3      -0.000000000000
  4       0.000000000000
  5       0.000000000000
  6       0.000000000000
  7      -0.000000000000
  8      -0.000000000000
  9      -0.000000000000
 10       0.000000000000
 11      -0.000000000000
 12      -0.000000000000
 13       0.000000000000
 14      -0.000000000000
 15      -0.000000000000
 16      -0.000000000000
 17      -0.000000000000
 18       0.000000000000
 19       0.000000000000
 20       0.000000000000
 21       0.000000000000
 22       0.000000000000
 23       0.000000000000
 24       0.000000000000
 25       0.000000000000
 26       0.000000000000
 27       0.000000000000
 28       0.000000000000
 29      -0.000000000000
 30      -0.000000000000
 31      -0.000000000000
 32       0.000000000000
 33       0.000000000000
 34       0.000000000000
 35       0.000000000000
 36       0.000000000000
 37      -0.000000000000
 38      -0.000000000000
 39      -0.000000000000
 40      -0.000000000000
 41      -1.000000000000
 42      -0.000000000000
 43       0.000000000000
 44       0.000000000000
 45      -0.000000000000
 46       0.000000000000
 47       0.000000000000
 48       0.000000000000
 49       0.000000000000
 50       0.000000000000
 51       0.000000000000
 52       0.000000000000
 53       0.000000000000
 54       0.000000000000
 55       0.000000000000
 56       0.000000000000
 57       0.000000000000
 58       0.000000000000
 59       0.000000000000
 60       0.000000000000
 61       0.000000000000
 Sym=     1a
 Ene= -6.43774007895434E+01
 Spin= Alpha
 Occup= 2.000000
  1       0.000015114891
  2      -0.000398776689
  3       0.001136428198
  4      -0.000021013856
  5      -0.000021013869
  6      -0.000021013870
  7       0.000114576355
  8       0.000114577233
  9       0.000114576196
 10      -0.000000000056
 11       0.000095473147
 12       0.000095473111
 13      -0.000000000054
 14       0.000095473080
 15       0.340754965600
 16      -1.055120713200
 17       0.001864318759
 18      -0.005524997407
 19       0.002840427066
 20       0.000283577616
 21       0.000283577958
 22       0.000283577854
 23      -0.000001034103
 24      -0.000001034084
 25      -0.000001034091
 26       0.000089536508
 27       0.000089536516
 28       0.000089536506
 29      -0.000015430927
 30      -0.000015430978
 31      -0.000015430917
 32       0.000000000002
 33      -0.000027116283
 34      -0.000027116292
 35       0.000000000008
 36      -0.000027116297
 37       0.000000000015
 38       0.000006334697
 39       0.000006334690
 40       0.000000000021
 41       0.000006334693
 42      -0.000000000040
 43      -0.000021138085
 44      -0.000021138068
 45      -0.000000000054
 46      -0.000021138066
 47      -0.000009784543
 48      -0.000405398004
 49      -0.000069256466
 50      -0.000071098623
 51      -0.000069256473
 52      -0.000009784263
 53      -0.000405397270
 54      -0.000071098621
 55      -0.000069256419
 56      -0.000069256289
 57      -0.000009784186
 58      -0.000405397141
 59      -0.000069256247
 60      -0.000069256368
 61      -0.000071098613
 Sym=     1a
 Ene= -5.71846585548831E+01
 Spin= Alpha
 Occup= 2.000000
  1       0.000012011879
  2       0.000004142720
  3       0.000219274329
  4      -0.000028500604
  5      -0.000028500611
  6      -0.000028500602
  7       0.000063164249
  8       0.000063164158
  9       0.000063164257
 10       0.000000000024
 11      -0.000064940292
 12      -0.000064940298
 13       0.000000000029
 14      -0.000064940303
 15      -0.000172568372
 16       0.000539544465
 17      -0.000063565558
 18       0.000165234173
 19      -0.000278684853
 20       0.574156976211
 21       0.574157261955
 22       0.574156988080
 23       0.008177732136
 24       0.008177736202
 25       0.008177732305
 26      -0.001146866623
 27      -0.001146867178
 28      -0.001146866644
 29       0.000443162127
 30       0.000443162335
 31       0.000443162129
 32       0.000000000002
 33      -0.000034665681
 34      -0.000034665703
 35       0.000000000023
 36      -0.000034665694
 37      -0.000000000002
 38       0.000019747398
 39       0.000019747406
 40      -0.000000000009
 41       0.000019747404
 42       0.000000000010
 43      -0.000020771436
 44      -0.000020771448
 45       0.000000000016
 46      -0.000020771446
 47      -0.000025459647
 48       0.000031757176
 49       0.000007158631
 50       0.000015530060
 51       0.000007158628
 52      -0.000025459695
 53       0.000031757090
 54       0.000015530022
 55       0.000007158608
 56       0.000007158593
 57      -0.000025459694
 58       0.000031757073
 59       0.000007158586
 60       0.000007158602
 61       0.000015530010
 Sym=     1a
 Ene= -5.71820711231026E+01
 Spin= Alpha
 Occup= 2.000000
  1       0.000000000458
  2      -0.000000000370
  3       0.000000000204
  4      -0.000006468756
  5      -0.000005169288
  6       0.000011638104
  7       0.000030095076
  8       0.000024049445
  9      -0.000054144498
 10       0.000012450427
 11      -0.000000186645
 12      -0.000000233556
 13      -0.000000802612
 14       0.000000420263
 15      -0.000000000040
 16       0.000000000126
 17      -0.000000000006
 18       0.000000000011
 19      -0.000000000044
 20      -0.450398630020
 21      -0.359921132354
 22       0.810319924744
 23      -0.006382647720
 24      -0.005100481312
 25       0.011483131336
 26       0.000859755807
 27       0.000687045348
 28      -0.001546801468
 29      -0.000267885053
 30      -0.000214071453
 31       0.000481956633
 32      -0.000037389782
 33      -0.000009558278
 34      -0.000011961076
 35       0.000002410319
 36       0.000021519356
 37       0.000020715242
 38       0.000005470771
 39       0.000006846031
 40      -0.000001335403
 41      -0.000012316817
 42      -0.000022457224
 43      -0.000006269506
 44      -0.000007845554
 45       0.000001447703
 46       0.000014115087
 47      -0.000009092206
 48       0.000019405758
 49       0.000002733235
 50       0.000004062112
 51       0.000013460816
 52      -0.000011377855
 53       0.000024283960
 54       0.000005083262
 55       0.000005153593
 56       0.000015111300
 57       0.000020470251
 58      -0.000043689804
 59      -0.000018614296
 60      -0.000017844412
 61      -0.000009145485
 Sym=     1a
 Ene= -5.71820711228713E+01
 Spin= Alpha
 Occup= 2.000000
  1       0.000000000172
  2      -0.000000000180
  3       0.000000000276
  4      -0.000009703745
  5       0.000010454011
  6      -0.000000750241
  7       0.000045145295
  8      -0.000048635674
  9       0.000003490402
 10      -0.000000802621
 11       0.000000377509
 12      -0.000000350393
 13      -0.000012450437
 14      -0.000000027090
 15      -0.000000000046
 16       0.000000000146
 17       0.000000000003
 18      -0.000000000012
 19      -0.000000000027
 20      -0.675639109722
 21       0.727876076578
 22      -0.052237328021
 23      -0.009574554930
 24       0.010314810639
 25      -0.000740260829
 26       0.001289712295
 27      -0.001389426255
 28       0.000099714666
 29      -0.000401852064
 30       0.000432921234
 31      -0.000031069353
 32       0.000002410340
 33       0.000019329937
 34      -0.000017942683
 35       0.000037389778
 36      -0.000001387220
 37      -0.000001335409
 38      -0.000011063674
 39       0.000010269667
 40      -0.000020715241
 41       0.000000793993
 42       0.000001447703
 43       0.000012678979
 44      -0.000011769048
 45       0.000022457221
 46      -0.000000909920
 47       0.000018387497
 48      -0.000039244811
 49      -0.000019026998
 50      -0.000008214993
 51      -0.000013722409
 52      -0.000017067883
 53       0.000036428184
 54       0.000007625392
 55       0.000018518584
 56       0.000011880513
 57      -0.000001319588
 58       0.000002816418
 59      -0.000004796167
 60       0.000007146501
 61       0.000000589540
 Sym=     1a
 Ene= -1.02907855092467E+01
 Spin= Alpha
 Occup= 2.000000
  1       0.988672629781
  2       0.047552718535
  3      -0.038776810859
  4      -0.000440228519
  5      -0.000440228547
  6      -0.000440228525
  7      -0.000377233609
  8      -0.000377234792
  9      -0.000377233537
 10      -0.000000000156
 11      -0.000764089946
 12      -0.000764089152
 13      -0.000000000329
 14      -0.000764088796
 15       0.000019924421
 16      -0.000054589867
 17       0.000274263718
 18      -0.000605580669
 19       0.005459489168
 20       0.000045320381
 21       0.000045318363
 22       0.000045316969
 23      -0.000148322629
 24      -0.000148318237
 25      -0.000148315586
 26       0.000187340100
 27       0.000187340505
 28       0.000187340128
 29      -0.001662549753
 30      -0.001662550460
 31      -0.001662548362
 32      -0.000000000755
 33      -0.000053707402
 34      -0.000053707777
 35       0.000000000138
 36      -0.000053706532
 37      -0.000000000031
 38       0.000291099875
 39       0.000291099254
 40      -0.000000000107
 41       0.000291099930
 42      -0.000000000113
 43      -0.000780472231
 44      -0.000780471538
 45       0.000000000441
 46      -0.000780472322
 47      -0.002808630779
 48       0.007917472613
 49      -0.001176205596
 50       0.001347909143
 51      -0.001176205619
 52      -0.002808632889
 53       0.007917475153
 54       0.001347908454
 55      -0.001176205362
 56      -0.001176205808
 57      -0.002808633316
 58       0.007917475466
 59      -0.001176205791
 60      -0.001176205350
 61       0.001347908326
 Sym=     1a
 Ene= -9.01865169289880E+00
 Spin= Alpha
 Occup= 2.000000
  1       0.000027764825
  2      -0.000918553312
  3       0.001929149574
  4      -0.000124524336
  5      -0.000124525054
  6      -0.000124525126
  7       0.000044267310
  8       0.000044269065
  9       0.000044266909
 10      -0.000000000228
 11       0.000145967526
 12       0.000145967977
 13      -0.000000000039
 14       0.000145967509
 15       0.129788843364
 16      -0.505032024429
 17       1.108882439868
 18      -0.003660362415
 19       0.006690345352
 20       0.001165035193
 21       0.001165036098
 22       0.001165035777
 23      -0.002872681953
 24      -0.002872684187
 25      -0.002872683400
 26       0.000126548233
 27       0.000126548268
 28       0.000126548222
 29      -0.000327585124
 30      -0.000327585348
 31      -0.000327585048
 32      -0.000000000091
 33       0.000702535614
 34       0.000702536003
 35      -0.000000000387
 36       0.000702536034
 37      -0.000000000065
 38       0.000409951518
 39       0.000409951652
 40      -0.000000000177
 41       0.000409951710
 42      -0.000000000086
 43       0.000034086939
 44       0.000034087022
 45      -0.000000000134
 46       0.000034087019
 47       0.000041854595
 48      -0.000932887058
 49      -0.000137549714
 50      -0.000132950386
 51      -0.000137550642
 52       0.000041854841
 53      -0.000932885219
 54      -0.000132950407
 55      -0.000137550510
 56      -0.000137550306
 57       0.000041854326
 58      -0.000932885054
 59      -0.000137549553
 60      -0.000137550088
 61      -0.000132950006
 Sym=     1a
 Ene= -6.68418754381983E+00
 Spin= Alpha
 Occup= 2.000000
  1      -0.000085449218
  2       0.000075398064
  3      -0.001898972105
  4       0.000035279344
  5       0.000035279169
  6       0.000035278763
  7      -0.000536510691
  8      -0.000536510169
  9      -0.000536510830
 10       0.000000000197
 11       0.000147282826
 12       0.000147282410
 13      -0.000000000215
 14       0.000147282660
 15      -0.000601591547
 16       0.002334580292
 17      -0.005319363775
 18      -0.000056212159
 19       0.001598520852
 20       0.250983808198
 21       0.250983937484
 22       0.250983822879
 23      -0.624848830656
 24      -0.624849152527
 25      -0.624848867214
 26      -0.003972733472
 27      -0.003972735488
 28      -0.003972733628
 29      -0.001973886542
 30      -0.001973887541
 31      -0.001973886576
 32      -0.000000000117
 33       0.001196713428
 34       0.001196714182
 35      -0.000000000788
 36       0.001196713899
 37       0.000000000060
 38       0.000322403979
 39       0.000322404192
 40      -0.000000000174
 41       0.000322404022
 42      -0.000000000089
 43       0.000260196708
 44       0.000260196852
 45      -0.000000000166
 46       0.000260196860
 47       0.000164096957
 48      -0.000045806611
 49      -0.000005179694
 50      -0.000025109887
 51      -0.000005179735
 52       0.000164098452
 53      -0.000045806108
 54      -0.000025109806
 55      -0.000005179016
 56      -0.000005179180
 57       0.000164095986
 58      -0.000045805861
 59      -0.000005179442
 60      -0.000005179291
 61      -0.000025109362
 Sym=     1a
 Ene= -6.67063271920113E+00
 Spin= Alpha
 Occup= 2.000000
  1      -0.000000003069
  2      -0.000000002070
  3       0.000000002439
  4      -0.000021939353
  5      -0.000029166057
  6       0.000051105401
  7       0.000152465497
  8       0.000202688370
  9      -0.000355152940
 10      -0.000007859851
 11      -0.000013840512
 12      -0.000010411183
 13      -0.000000641733
 14       0.000024251785
 15       0.000000000088
 16      -0.000000000335
 17       0.000000000798
 18      -0.000000000069
 19      -0.000000000796
 20       0.151906339941
 21       0.201945577340
 22      -0.353852000612
 23      -0.378255154508
 24      -0.502855612137
 25       0.881110974141
 26      -0.002110679600
 27      -0.002805955385
 28       0.004916636152
 29      -0.000854961360
 30      -0.001136592963
 31       0.001991555835
 32      -0.001322581832
 33      -0.000433543317
 34      -0.000326118028
 35      -0.000107982189
 36       0.000759660973
 37      -0.000631919964
 38      -0.000209632333
 39      -0.000157688674
 40      -0.000051593102
 41       0.000367320891
 42      -0.000030402213
 43      -0.000013797344
 44      -0.000010378545
 45      -0.000002482154
 46       0.000024175750
 47      -0.000073896784
 48       0.000081436649
 49       0.000006270941
 50       0.000008213706
 51       0.000066075614
 52      -0.000055585819
 53       0.000061257054
 54       0.000006178443
 55      -0.000005650378
 56       0.000060070666
 57       0.000129482929
 58      -0.000142694546
 59      -0.000060425475
 60      -0.000066341698
 61      -0.000014393429
 Sym=     1a
 Ene= -6.67063271806840E+00
 Spin= Alpha
 Occup= 2.000000
  1      -0.000000003120
  2      -0.000000001955
  3       0.000000003256
  4      -0.000046345053
  5       0.000042172514
  6       0.000004172328
  7       0.000322071432
  8      -0.000293074198
  9      -0.000028996817
 10      -0.000000641613
 11       0.000020012568
 12      -0.000021992643
 13       0.000007859443
 14       0.000001980026
 15       0.000000000072
 16      -0.000000000279
 17       0.000000000643
 18      -0.000000000008
 19      -0.000000000624
 20       0.320889931973
 21      -0.291999663365
 22      -0.028890116475
 23      -0.799033607480
 24       0.727095247147
 25       0.071937981483
 26      -0.004458640757
 27       0.004057221874
 28       0.000401416989
 29      -0.001806037896
 30       0.001643437715
 31       0.000162600185
 32      -0.000107981603
 33       0.000626875006
 34      -0.000688896953
 35       0.001322581675
 36       0.000062023100
 37      -0.000051592823
 38       0.000303114479
 39      -0.000333104101
 40       0.000631919880
 41       0.000029990160
 42      -0.000002482281
 43       0.000019950000
 44      -0.000021923889
 45       0.000030402429
 46       0.000001973821
 47       0.000106853592
 48      -0.000117752734
 49      -0.000072984625
 50      -0.000011878175
 51      -0.000031623534
 52      -0.000117423026
 53       0.000129400995
 54       0.000013052496
 55       0.000073034757
 56       0.000041922876
 57       0.000010572258
 58      -0.000011650262
 59      -0.000041411303
 60       0.000031061195
 61      -0.000001175647
 Sym=     1a
 Ene= -2.63150413678545E+00
 Spin= Alpha
 Occup= 2.000000
  1       0.001292513833
  2      -0.002024244001
  3       0.005803898026
  4      -0.001231081268
  5      -0.001231067480
  6      -0.001231069352
  7       0.000853809418
  8       0.000853808061
  9       0.000853808242
 10       0.000000000486
 11      -0.000871019147
 12      -0.000871021160
 13       0.000000000963
 14      -0.000871018158
 15       0.000368681453
 16      -0.001257115038
 17       0.004249510762
 18      -0.003780198473
 19      -0.002011392107
 20       0.000692428868
 21       0.000692429279
 22       0.000692428963
 23      -0.001842480210
 24      -0.001842481390
 25      -0.001842480621
 26       0.000332366286
 27       0.000332367296
 28       0.000332367698
 29       0.001613272604
 30       0.001613274572
 31       0.001613274815
 32       0.000000216724
 33      -0.489236543072
 34      -0.489236783229
 35       0.000000198233
 36      -0.489236790666
 37       0.000000067180
 38      -0.152172688934
 39      -0.152172763616
 40       0.000000061910
 41      -0.152172765877
 42       0.000000007113
 43      -0.014971948631
 44      -0.014971956113
 45       0.000000005461
 46      -0.014971956265
 47      -0.000622644351
 48      -0.000811822279
 49      -0.000197988354
 50       0.000092554413
 51      -0.000197990993
 52      -0.000622652219
 53      -0.000811822586
 54       0.000092552928
 55      -0.000197989495
 56      -0.000197989782
 57      -0.000622645113
 58      -0.000811822116
 59      -0.000197989413
 60      -0.000197992076
 61       0.000092553893
 Sym=     1a
 Ene= -2.62768321532437E+00
 Spin= Alpha
 Occup= 2.000000
  1      -0.000000002571
  2       0.000000001520
  3       0.000000002640
  4      -0.000214417657
  5      -0.000160747754
  6       0.000375165564
  7       0.000625924188
  8       0.000469248311
  9      -0.001095173046
 10       0.000203139832
 11       0.000052511766
 12       0.000070044629
 13      -0.000016778686
 14      -0.000122556598
 15       0.000000000082
 16      -0.000000000261
 17       0.000000001031
 18      -0.000000000787
 19      -0.000000001379
 20      -0.000487690934
 21      -0.000365617315
 22       0.000853308800
 23       0.001310526720
 24       0.000982489469
 25      -0.002293017626
 26      -0.000516753914
 27      -0.000387404728
 28       0.000904158803
 29      -0.000152499055
 30      -0.000114325220
 31       0.000266824538
 32      -0.688744128005
 33      -0.171195194437
 34      -0.228354440940
 35       0.056886757011
 36       0.399549263223
 37      -0.213971824229
 38      -0.053188394889
 39      -0.070947120858
 40       0.017672982874
 41       0.124135399748
 42      -0.020445122927
 43      -0.005074634606
 44      -0.006768971985
 45       0.001688662990
 46       0.011843596559
 47      -0.000134014294
 48      -0.000196162879
 49      -0.000071705181
 50       0.000024455302
 51       0.000124762483
 52      -0.000178754777
 53      -0.000261659414
 54       0.000032619947
 55      -0.000053905515
 56       0.000124678480
 57       0.000312777123
 58       0.000457821329
 59      -0.000070854717
 60      -0.000052971852
 61      -0.000057074704
 Sym=     1a
 Ene= -2.62768321437367E+00
 Spin= Alpha
 Occup= 2.000000
  1      -0.000000000161
  2       0.000000000244
  3       0.000000007206
  4       0.000309410470
  5      -0.000340397116
  6       0.000030988462
  7      -0.000903215398
  8       0.000993673068
  9      -0.000090455592
 10       0.000016778306
 11       0.000111198443
 12      -0.000101076123
 13       0.000203138406
 14      -0.000010122482
 15      -0.000000000024
 16       0.000000000077
 17      -0.000000000285
 18       0.000000001064
 19      -0.000000003359
 20       0.000703747809
 21      -0.000774226611
 22       0.000070478965
 23      -0.001891116409
 24       0.002080507487
 25      -0.000189391529
 26       0.000745686764
 27      -0.000820364823
 28       0.000074678431
 29       0.000220059952
 30      -0.000242095183
 31       0.000022038928
 32      -0.056886953890
 33      -0.362520313012
 34       0.329519310966
 35      -0.688744235987
 36       0.033000519107
 37      -0.017673043992
 38      -0.112630927130
 39       0.102377892573
 40      -0.213971857917
 41       0.010252885227
 42      -0.001688668937
 43      -0.010745970276
 44       0.009767740144
 45      -0.020445125213
 46       0.000978213695
 47      -0.000283785965
 48      -0.000415390240
 49       0.000102564842
 50       0.000051784529
 51       0.000009787495
 52       0.000257943507
 53       0.000377576308
 54      -0.000047069880
 55      -0.000112941955
 56       0.000010815856
 57       0.000025836021
 58       0.000037813417
 59       0.000103153393
 60      -0.000113381388
 61      -0.000004714916
 Sym=     1a
 Ene= -2.61669949230228E+00
 Spin= Alpha
 Occup= 2.000000
  1      -0.000000000073
  2      -0.000000000152
  3       0.000000000582
  4       0.000001390493
  5      -0.000002176501
  6       0.000000786748
  7      -0.000220577874
  8       0.000345764898
  9      -0.000125179534
 10       0.000002378886
 11       0.000020879354
 12      -0.000013320389
 13       0.000006210808
 14      -0.000007559954
 15       0.000000000031
 16      -0.000000000092
 17       0.000000000433
 18       0.000000000053
 19      -0.000000003470
 20      -0.000000306286
 21       0.000000479619
 22      -0.000000173566
 23       0.000001600362
 24      -0.000002507146
 25       0.000000907502
 26      -0.000011567031
 27       0.000018130015
 28      -0.000006564020
 29       0.000023555319
 30      -0.000036922467
 31       0.000013369434
 32      -0.175709633555
 33       0.557740433457
 34      -0.355816405432
 35      -0.458968406343
 36      -0.201924015112
 37      -0.054344110678
 38       0.172520286329
 39      -0.110061140215
 40      -0.141951408312
 41      -0.062459141901
 42      -0.005106759846
 43       0.016148659737
 44      -0.010302208562
 45      -0.013339287765
 46      -0.005846451290
 47      -0.000045909556
 48      -0.000468465823
 49      -0.000048413124
 50       0.000009985674
 51      -0.000054778287
 52       0.000029290745
 53       0.000298861702
 54      -0.000006371768
 55       0.000017193591
 56       0.000048637308
 57       0.000016619368
 58       0.000169604635
 59       0.000037582825
 60      -0.000000225959
 61      -0.000003617748
 Sym=     1a
 Ene= -2.61669949220763E+00
 Spin= Alpha
 Occup= 2.000000
  1      -0.000000000045
  2       0.000000002168
  3       0.000000001078
  4      -0.000001711875
  5      -0.000000346951
  6       0.000002057368
  7       0.000271896608
  8       0.000055078951
  9      -0.000326981850
 10       0.000006212158
 11       0.000003325648
 12       0.000016420016
 13      -0.000002378503
 14      -0.000019746038
 15       0.000000000039
 16      -0.000000000137
 17       0.000000000416
 18      -0.000000000569
 19       0.000000001977
 20       0.000000377238
 21       0.000000076351
 22      -0.000000453479
 23      -0.000001971763
 24      -0.000000399269
 25       0.000002370748
 26       0.000014256880
 27       0.000002888345
 28      -0.000017145305
 29      -0.000029036397
 30      -0.000005882580
 31       0.000034917180
 32      -0.458968629826
 33       0.088849833742
 34       0.438592269893
 35       0.175709857230
 36      -0.527442184008
 37      -0.141951477418
 38       0.027483032997
 39       0.135665372854
 40       0.054344180155
 41      -0.163148430995
 42      -0.013339294376
 43       0.002572533330
 44       0.012698877436
 45       0.005106766129
 46      -0.015271412613
 47      -0.000007313254
 48      -0.000074629061
 49      -0.000028210146
 50       0.000001592591
 51       0.000011773121
 52      -0.000036107558
 53      -0.000368388951
 54       0.000007855271
 55      -0.000053327198
 56      -0.000027818621
 57       0.000043414720
 58       0.000443016499
 59       0.000041554983
 60       0.000056030338
 61      -0.000009443151
 Sym=     1a
 Ene= -8.37195325537752E-01
 Spin= Alpha
 Occup= 2.000000
  1       0.142764043155
  2      -0.285082981631
  3      -0.062010098328
  4      -0.042947584173
  5      -0.042947586320
  6      -0.042947572665
  7      -0.008214267559
  8      -0.008214287926
  9      -0.008214298380
 10       0.000000018966
 11      -0.006053201080
 12      -0.006053243909
 13      -0.000000001684
 14      -0.006053212141
 15       0.036277721737
 16      -0.101983169665
 17       0.516630652059
 18      -0.733830036803
 19      -0.206775790318
 20       0.010079127130
 21       0.010079132308
 22       0.010079128867
 23      -0.031260964048
 24      -0.031260980430
 25      -0.031260969692
 26       0.046471483858
 27       0.046471508779
 28       0.046471491496
 29       0.029321982645
 30       0.029322009178
 31       0.029321999412
 32      -0.000000005930
 33       0.011509576460
 34       0.011509577143
 35      -0.000000001184
 36       0.011509584210
 37       0.000000002774
 38       0.000341693614
 39       0.000341699409
 40      -0.000000004083
 41       0.000341692392
 42      -0.000000000766
 43      -0.018678712851
 44      -0.018678717033
 45       0.000000006362
 46      -0.018678716539
 47      -0.076959513102
 48      -0.009431607001
 49      -0.006584688036
 50       0.005296971971
 51      -0.006584592334
 52      -0.076959427261
 53      -0.009431642441
 54       0.005296997252
 55      -0.006584592643
 56      -0.006584598137
 57      -0.076959512458
 58      -0.009431599079
 59      -0.006584666398
 60      -0.006584615080
 61       0.005296964862
 Sym=     1a
 Ene= -6.87534401639478E-01
 Spin= Alpha
 Occup= 2.000000
  1       0.209287806308
  2      -0.422219504275
  3      -0.143408237107
  4       0.052312209650
  5       0.052312239303
  6       0.052312210523
  7       0.017473416385
  8       0.017473404628
  9       0.017473423402
 10      -0.000000015020
 11       0.002115755585
 12       0.002115794019
 13      -0.000000000676
 14       0.002115761476
 15      -0.024926887440
 16       0.069392069426
 17      -0.358094176206
 18       0.530672123608
 19       0.153614827461
 20       0.009228506646
 21       0.009228518151
 22       0.009228510739
 23      -0.028628192758
 24      -0.028628229481
 25      -0.028628206210
 26       0.040313987452
 27       0.040314048345
 28       0.040314011439
 29       0.034431464571
 30       0.034431521989
 31       0.034431483886
 32      -0.000000008452
 33       0.005153592124
 34       0.005153590784
 35       0.000000002672
 36       0.005153602087
 37       0.000000006189
 38       0.000952301032
 39       0.000952306460
 40      -0.000000006766
 41       0.000952294055
 42      -0.000000007981
 43      -0.008159057179
 44      -0.008159063249
 45       0.000000004566
 46      -0.008159053929