[Molden Format]
[Title]
 Molden file created by orca_2mkl for BaseName=hcl

[Atoms] AU
H    1   1         -0.2692554073         0.0000000000         0.0000000000 
Cl   2  17          2.1589815412         0.0000000000         0.0000000000 
[GTO]
  1 0
s   3 1.0 
       13.0107010000         0.1634903809
        1.9622572000         0.2773515510
        0.4445379600         0.3157501452
s   1 1.0 
        0.1219496200         0.1470772262
p   1 1.0 
        0.8000000000         1.0784563492

  2 0
s   5 1.0 
    10449.8275660000         3.9973241313
     1571.7365221000         7.2277480961
      357.1206552300        10.7494942607
      100.2518593500        10.7118498358
       30.8127275540         4.0765111022
s   3 1.0 
       51.9237894340        -1.2786987774
        5.7045760975         1.4832318965
        2.3508376809         0.6815120566
s   1 1.0 
        0.4460512467         0.3889991572
s   1 1.0 
        0.1684885619         0.1874294841
p   5 1.0 
      307.6679056900       -16.3095226390
       72.1020155150       -19.2520828188
       22.5326802620       -16.9965641132
        7.8991765444        -9.1249716393
        2.8767268321        -2.0801728153
p   1 1.0 
        0.7745936396         1.0358157160
p   1 1.0 
        0.2103769970         0.2030897020
d   1 1.0 
        0.6500000000         1.3414313681

[5D]
[7F]
[9G]
[MO]
 Sym=     1a
 Ene= -1.02062952667640E+02
 Spin= Alpha
 Occup= 2.000000
  1      -0.000547714384
  2       0.000706899015
  3      -0.000853782334
  4      -0.000000000000
  5      -0.000000000000
  6      -0.994796216393
  7      -0.019457435689
  8       0.008080882655
  9      -0.004230825460
 10      -0.000161691013
 11      -0.000000000001
 12       0.000000000001
 13      -0.000440778425
 14      -0.000000000005
 15       0.000000000003
 16       0.000113534389
 17      -0.000000000002
 18       0.000000000001
 19      -0.000195983410
 20      -0.000000000000
 21      -0.000000000001
 22       0.000339453223
 23       0.000000000000
 Sym=     1a
 Ene= -9.60302327592951E+00
 Spin= Alpha
 Occup= 2.000000
  1       0.001422621510
  2      -0.001869538188
  3       0.001498423715
  4       0.000000000000
  5       0.000000000000
  6       0.310097070402
  7      -1.025064357056
  8      -0.039497287535
  9       0.012616323524
 10      -0.006079948469
 11      -0.000000000005
 12       0.000000000003
 13       0.001408105168
 14       0.000000000016
 15      -0.000000000010
 16      -0.000307136371
 17       0.000000000006
 18      -0.000000000005
 19       0.000583599231
 20       0.000000000001
 21       0.000000000002
 22      -0.001010823519
 23      -0.000000000001
 Sym=     1a
 Ene= -7.28536760271211E+00
 Spin= Alpha
 Occup= 2.000000
  1      -0.001302229145
  2       0.001999628285
  3      -0.002308798478
  4      -0.000000000000
  5      -0.000000000000
  6       0.002063197600
  7      -0.007402142921
  8       0.001830232864
  9      -0.001469078805
 10       0.981610794865
 11       0.000000000032
 12      -0.000000000025
 13      -0.048930164072
 14      -0.000000000001
 15       0.000000000001
 16       0.006515936867
 17       0.000000000000
 18      -0.000000000000
 19      -0.000794877070
 20       0.000000000000
 21       0.000000000000
 22       0.001376767471
 23       0.000000000000
 Sym=     1a
 Ene= -7.27533557411411E+00
 Spin= Alpha
 Occup= 2.000000
  1      -0.000000000001
  2       0.000000000002
  3       0.000000000000
  4      -0.000051272393
  5       0.000008669041
  6      -0.000000000005
  7       0.000000000013
  8       0.000000000003
  9      -0.000000000002
 10       0.000000000036
 11      -0.968599838901
 12       0.163769057605
 13      -0.000000000002
 14       0.046022753165
 15      -0.007781441429
 16       0.000000000001
 17      -0.005882298660
 18       0.000994568107
 19       0.000000000000
 20       0.000064339196
 21      -0.000000000000
 22       0.000000000000
 23      -0.000380529362
 Sym=     1a
 Ene= -7.27533557411283E+00
 Spin= Alpha
 Occup= 2.000000
  1       0.000000000001
  2       0.000000000002
  3       0.000000000001
  4       0.000008669041
  5       0.000051272393
  6      -0.000000000002
  7       0.000000000005
  8       0.000000000005
  9      -0.000000000006
 10       0.000000000020
 11       0.163769057605
 12       0.968599838901
 13      -0.000000000001
 14      -0.007781441428
 15      -0.046022753165
 16       0.000000000002
 17       0.000994568107
 18       0.005882298661
 19       0.000000000000
 20       0.000380529362
 21       0.000000000000
 22      -0.000000000000
 23       0.000064339196
 Sym=     1a
 Ene= -8.57248108695053E-01
 Spin= Alpha
 Occup= 2.000000
  1      -0.190461272627
  2      -0.013294652907
  3      -0.026273492782
  4      -0.000000000003
  5      -0.000000000001
  6      -0.081654978042
  7       0.517053568467
  8      -0.708837451051
  9      -0.338514752089
 10       0.041960460943
 11      -0.000000000020
 12       0.000000000007
 13       0.067292117239
 14      -0.000000000037
 15       0.000000000014
 16       0.037553705233
 17      -0.000000000033
 18       0.000000000004
 19       0.010160916032
 20      -0.000000000001
 21      -0.000000000005
 22      -0.017599222819
 23       0.000000000003
 Sym=     1a
 Ene= -4.74440873461013E-01
 Spin= Alpha
 Occup= 2.000000
  1      -0.379735087036
  2      -0.132750949743
  3      -0.038378605307
  4       0.000000000000
  5      -0.000000000000
  6       0.026819158512
  7      -0.175059042152
  8       0.231723002014
  9       0.266795581191
 10       0.226158948617
 11      -0.000000000001
 12      -0.000000000009
 13       0.385041958896
 14       0.000000000001
 15      -0.000000000017
 16       0.382134090624
 17      -0.000000000010
 18      -0.000000000020
 19       0.018690815245
 20       0.000000000002
 21       0.000000000002
 22      -0.032373441640
 23      -0.000000000002
 Sym=     1a
 Ene= -3.30994223997338E-01
 Spin= Alpha
 Occup= 2.000000
  1       0.000000000014
  2      -0.000000000004
  3       0.000000000004
  4      -0.012446350207
  5       0.020671065086
  6       0.000000000012
  7      -0.000000000016
  8      -0.000000000076
  9       0.000000000119
 10       0.000000000007
 11      -0.143757403261
 12       0.238754220319
 13       0.000000000013
 14      -0.248165858089
 15       0.412157180181
 16       0.000000000018
 17      -0.339427575348
 18       0.563725862238
 19       0.000000000002
 20      -0.017023006384
 21      -0.000000000003
 22       0.000000000001
 23       0.010249800779
 Sym=     1a
 Ene= -3.30994223990807E-01
 Spin= Alpha
 Occup= 2.000000
  1      -0.000000000014
  2      -0.000000000001
  3      -0.000000000002
  4       0.020671065083
  5       0.012446350204
  6      -0.000000000006
  7       0.000000000007
  8       0.000000000051
  9      -0.000000000082
 10       0.000000000006
 11       0.238754220320
 12       0.143757403262
 13       0.000000000009
 14       0.412157180182
 15       0.248165858094
 16       0.000000000013
 17       0.563725862238
 18       0.339427575345
 19       0.000000000000
 20      -0.010249800781
 21       0.000000000000
 22      -0.000000000002
 23      -0.017023006387
 Sym=     1a
 Ene= 3.31090072236303E-02
 Spin= Alpha
 Occup= 0.000000
  1       0.329696398542
  2       1.239727092470
  3      -0.017549248885
  4      -0.000000000017
  5       0.000000000003
  6      -0.024015234995
  7       0.161552920605
  8      -0.216900883332
  9      -0.679115685013
 10       0.162626639511
 11       0.000000000032
 12      -0.000000000010
 13       0.273461121371
 14       0.000000000089
 15      -0.000000000024
 16       0.788875024073
 17      -0.000000000043
 18      -0.000000000000
 19      -0.038020880843
 20      -0.000000000013
 21      -0.000000000001
 22       0.065854097373
 23       0.000000000004
 Sym=     1a
 Ene= 3.43288616446893E-01
 Spin= Alpha
 Occup= 0.000000
  1       1.034468657490
  2      -1.043855288498
  3      -0.009198872015
  4       0.000000000026
  5       0.000000000004
  6       0.006071486409
  7      -0.048638712561
  8       0.266434065479
  9      -0.061226121838
 10       0.052482475341
 11      -0.000000000014
 12      -0.000000000001
 13       0.075134943735
 14      -0.000000000036
 15      -0.000000000003
 16       0.238954253035
 17       0.000000000014
 18       0.000000000000
 19      -0.182186650680
 20       0.000000000017
 21      -0.000000000007
 22       0.315556535438
 23       0.000000000029
 Sym=     1a
 Ene= 5.36188992431095E-01
 Spin= Alpha
 Occup= 0.000000
  1      -0.160956079865
  2       0.942155000108
  3       0.045333878479
  4      -0.000000000017
  5       0.000000000061
  6       0.073228383431
  7      -0.554820922784
  8       2.191891906310
  9      -2.525150541451
 10       0.064638534388
 11      -0.000000000086
 12       0.000000000022
 13       0.166077623436
 14      -0.000000000262
 15       0.000000000074
 16       0.168055673873
 17       0.000000000174
 18      -0.000000000060
 19       0.004103332131
 20      -0.000000000281
 21      -0.000000000059
 22      -0.007107179781
 23       0.000000000057
 Sym=     1a
 Ene= 7.05483897111230E-01
 Spin= Alpha
 Occup= 0.000000
  1      -0.000000000073
  2       0.000000000256
  3      -0.000000000016
  4       0.028774989299
  5      -0.277571106109
  6       0.000000000021
  7      -0.000000000161
  8       0.000000000628
  9      -0.000000000698
 10       0.000000000040
 11      -0.002012301647
 12       0.019411190352
 13       0.000000000120
 14      -0.003953481257
 15       0.038136318891
 16      -0.000000000043
 17      -0.006042871682
 18       0.058291127667
 19      -0.000000000008
 20       0.887488124012
 21       0.000000000006
 22       0.000000000007
 23      -0.092003312697
 Sym=     1a
 Ene= 7.05483897115083E-01
 Spin= Alpha
 Occup= 0.000000
  1       0.000000000009
  2      -0.000000000016
  3       0.000000000010
  4      -0.277571106111
  5      -0.028774989299
  6      -0.000000000001
  7       0.000000000009
  8      -0.000000000043
  9       0.000000000048
 10      -0.000000000007
 11       0.019411190358
 12       0.002012301653
 13      -0.000000000018
 14       0.038136318911
 15       0.003953481277
 16       0.000000000012
 17       0.058291127651
 18       0.006042871666
 19      -0.000000000007
 20       0.092003312697
 21      -0.000000000005
 22      -0.000000000041
 23       0.887488124011
 Sym=     1a
 Ene= 7.97302091673848E-01
 Spin= Alpha
 Occup= 0.000000
  1       0.000000000004
  2      -0.000000000036
  3      -0.000000000008
  4       0.000000000009
  5       0.000000000002
  6      -0.000000000001
  7       0.000000000014
  8      -0.000000000060
  9       0.000000000077
 10       0.000000000004
 11      -0.000000000025
 12       0.000000000017
 13       0.000000000013
 14      -0.000000000079
 15       0.000000000056
 16      -0.000000000025
 17       0.000000000063
 18      -0.000000000047
 19      -0.866025403785
 20      -0.000000000007
 21      -0.000000009949
 22      -0.499999999999
 23      -0.000000000020
 Sym=     1a
 Ene= 7.97322620523598E-01
 Spin= Alpha
 Occup= 0.000000
  1      -0.000000000003
  2       0.000000000028
  3       0.000000000019
  4       0.000000000002
  5      -0.000000000003
  6      -0.000000000002
  7       0.000000000023
  8      -0.000000000094
  9       0.000000000072
 10      -0.000000000031
 11       0.000000000006
 12      -0.000000000023
 13      -0.000000000100
 14       0.000000000019
 15      -0.000000000073
 16       0.000000000102
 17      -0.000000000015
 18       0.000000000061
 19       0.000000008614
 20       0.000000000006
 21      -1.000000000000
 22       0.000000004978
 23      -0.000000000005
 Sym=     1a
 Ene= 8.65965969817116E-01
 Spin= Alpha
 Occup= 0.000000
  1      -0.336809969896
  2       1.011332044878
  3       0.316940391778
  4      -0.000000000054
  5       0.000000000014
  6       0.004574346817
  7      -0.035337093633
  8       0.287406533683
  9      -0.828228842820
 10      -0.309801645293
 11       0.000000000574
 12      -0.000000000505
 13      -1.024300576712
 14       0.000000001869
 15      -0.000000001646
 16       1.218484465349
 17      -0.000000001582
 18       0.000000001400
 19      -0.168942547763
 20       0.000000000101
 21       0.000000000073
 22       0.292617076258
 23      -0.000000000080
 Sym=     1a
 Ene= 8.86130917743797E-01
 Spin= Alpha
 Occup= 0.000000
  1      -0.000000000608
  2       0.000000001541
  3       0.000000000470
  4       0.024793535261
  5      -0.003599895544
  6      -0.000000000004
  7       0.000000000052
  8      -0.000000000001
  9      -0.000000000813
 10      -0.000000000501
 11      -0.389011070448
 12       0.056482433785
 13      -0.000000001654
 14      -1.267713486137
 15       0.184065566454
 16       0.000000001900
 17       1.073747137019
 18      -0.155902636643
 19      -0.000000000258
 20      -0.006536134139
 21      -0.000000000022
 22       0.000000000578
 23       0.045016270879
 Sym=     1a
 Ene= 8.86130917756381E-01
 Spin= Alpha
 Occup= 0.000000
  1      -0.000000000397
  2       0.000000001033
  3       0.000000000349
  4      -0.003599895518
  5      -0.024793535272
  6       0.000000000004
  7      -0.000000000018
  8       0.000000000203
  9      -0.000000000747
 10      -0.000000000317
 11       0.056482433784
 12       0.389011070448
 13      -0.000000001042
 14       0.184065566453
 15       1.267713486136
 16       0.000000001223
 17      -0.155902636653
 18      -1.073747137017
 19      -0.000000000175
 20      -0.045016270873
 21      -0.000000000054
 22       0.000000000372
 23      -0.006536134144
 Sym=     1a
 Ene= 1.16503886413949E+00
 Spin= Alpha
 Occup= 0.000000
  1      -0.916825796309
  2      -0.191188972727
  3       0.060495874769
  4      -0.000000000047
  5       0.000000000006
  6      -0.010280576352
  7       0.086261551299
  8      -0.551242514498
  9       0.922670869592
 10       0.196100706916
 11       0.000000000023
 12      -0.000000000029
 13       0.749128559686
 14       0.000000000071
 15      -0.000000000094
 16      -1.198922264947
 17      -0.000000000043
 18       0.000000000077
 19      -0.431467980614
 20      -0.000000000022
 21      -0.000000000021
 22       0.747324464270
 23      -0.000000000002
 Sym=     1a
 Ene= 1.57254383319596E+00
 Spin= Alpha
 Occup= 0.000000
  1      -0.000000000049
  2       0.000000000079
  3       0.000000000035
  4       0.800805176227
  5       0.642878725528
  6      -0.000000000000
  7      -0.000000000000
  8       0.000000000010
  9      -0.000000000049
 10       0.000000000005
 11       0.010241752874
 12       0.008221981115
 13       0.000000000020
 14       0.076354840342
 15       0.061296934521
 16      -0.000000000001
 17      -0.243518683061
 18      -0.195494466394
 19      -0.000000000003
 20       0.329151275456
 21      -0.000000000001
 22       0.000000000007
 23       0.410008971647
 Sym=     1a
 Ene= 1.57254383320553E+00
 Spin= Alpha
 Occup= 0.000000
  1      -0.000000000044
  2       0.000000000001
  3      -0.000000000021
  4       0.642878725528
  5      -0.800805176227
  6      -0.000000000001
  7       0.000000000007
  8      -0.000000000041
  9       0.000000000060
 10      -0.000000000002
 11       0.008221981118
 12      -0.010241752881
 13      -0.000000000003
 14       0.061296934531
 15      -0.076354840367
 16      -0.000000000028
 17      -0.195494466404
 18       0.243518683085
 19      -0.000000000017
 20      -0.410008971645
 21       0.000000000003
 22       0.000000000027
 23       0.329151275456
 Sym=     1a
 Ene= 2.26873383047716E+00
 Spin= Alpha
 Occup= 0.000000
  1      -0.764912368178
  2      -0.574064401953
  3      -1.428193746779
  4       0.000000000000
  5       0.000000000028
  6       0.020395374445
  7      -0.165040949187
  8       0.174930075695
  9       0.871874055640
 10      -0.172031234747
 11       0.000000000011
 12       0.000000000003
 13      -0.554255546336
 14       0.000000000037
 15       0.000000000007
 16      -0.676617905836
 17      -0.000000000035
 18      -0.000000000009
 19      -0.431300563107
 20       0.000000000004
 21      -0.000000000000
 22       0.747034488639
 23       0.000000000009
