[Molden Format]
[Title]
 Molden file created by orca_2mkl for BaseName=chfclbr

[Atoms] AU
C    1   6          0.2595379653         0.4363511419         0.1739215097 
H    2   1          1.4608953725         1.5816396513         1.4176990825 
F    3   9         -1.1824388729         1.9266667023        -1.2530612405 
Cl   4  17          2.2243206054        -1.4328528021        -1.7580217810 
Br   5  35         -1.8613753809        -1.6108650040         2.3204021188 
[GTO]
  1 0
s   5 1.0 
     1238.4016938000         0.8208956682
      186.2900499200         1.4766449896
       42.2511763460         2.1526124058
       11.6765579320         2.1081722461
        3.5930506482         0.8290999933
s   1 1.0 
        0.4024514736         0.3601183351
s   1 1.0 
        0.1309018267         0.1551027052
p   3 1.0 
        9.4680970621         1.3467645142
        2.0103545142         1.0678070931
        0.5477100471         0.5108735714
p   1 1.0 
        0.1526861379         0.1360471976
d   1 1.0 
        0.8000000000         1.9292013661

  2 0
s   3 1.0 
       13.0107010000         0.1634903809
        1.9622572000         0.2773515510
        0.4445379600         0.3157501452
s   1 1.0 
        0.1219496200         0.1470772262
p   1 1.0 
        0.8000000000         1.0784563492

  3 0
s   5 1.0 
     2894.8325990000        -1.5046183743
      435.4193912000        -2.7151913889
       98.8433288660        -4.0084234848
       27.4851980010        -4.0066489820
        8.5405498171        -1.5924531440
s   1 1.0 
        1.0654578038         0.7474158152
s   1 1.0 
        0.3324734675         0.3120526226
p   3 1.0 
       22.6966339240        -4.5745381020
        4.9872339257        -3.6157678437
        1.3491613954        -1.5230827082
p   1 1.0 
        0.3482988198         0.3813994755
d   1 1.0 
        1.4000000000         5.1368176128

  4 0
s   5 1.0 
    10449.8275660000         3.9973241313
     1571.7365221000         7.2277480961
      357.1206552300        10.7494942607
      100.2518593500        10.7118498358
       30.8127275540         4.0765111022
s   3 1.0 
       51.9237894340        -1.2786987774
        5.7045760975         1.4832318965
        2.3508376809         0.6815120566
s   1 1.0 
        0.4460512467         0.3889991572
s   1 1.0 
        0.1684885619         0.1874294841
p   5 1.0 
      307.6679056900       -16.3095226390
       72.1020155150       -19.2520828188
       22.5326802620       -16.9965641132
        7.8991765444        -9.1249716393
        2.8767268321        -2.0801728153
p   1 1.0 
        0.7745936396         1.0358157160
p   1 1.0 
        0.2103769970         0.2030897020
d   1 1.0 
        0.6500000000         1.3414313681

  5 0
s   6 1.0 
   113286.3877600000         7.5076141183
    17009.6263030000        13.8835270484
     3870.1842567000        22.7307285566
     1093.0357227000        30.8227297499
      356.3972179700        27.2481937511
      123.1253964300         9.6953381145
s   3 1.0 
      236.7408400700        -4.7631125758
       28.4686610700         5.6113863182
       11.8834437220         1.9900291396
s   3 1.0 
       21.2696333120        -1.5429794477
        3.6129226841         1.3310800628
        1.6626648969         0.4300130345
s   1 1.0 
        0.3482379323         0.3230852630
s   1 1.0 
        0.1301903139         0.1544699827
p   5 1.0 
     1560.2801881000       115.0180051576
      368.4785920500       143.9035925417
      117.2297884900       137.5255986684
       42.6489092480        78.9578527439
       16.0872250960        15.8580577654
p   3 1.0 
        8.6352810058         6.8437546680
        3.5613665502         3.7974971038
        1.5292626609         0.5585414278
p   1 1.0 
        0.5306429485         0.6455696201
p   1 1.0 
        0.1570275896         0.1408996918
d   4 1.0 
      104.8551864200       261.4493931636
       30.2811436880       176.6993802449
       10.6513942670        76.9545600188
        3.8699456233        17.5937671387
d   1 1.0 
        1.3240876762         4.6593398042
d   1 1.0 
        0.3890000000         0.5462379705

[5D]
[7F]
[9G]
[MO]
 Sym=     1a
 Ene= -4.89229893532202E+02
 Spin= Alpha
 Occup= 2.000000
  1      -0.000009759553
  2       0.000260976139
  3      -0.001139979838
  4      -0.000017266921
  5      -0.000048780320
  6       0.000045500178
  7       0.000319754364
  8       0.000393625833
  9      -0.000277629157
 10      -0.000005231698
 11       0.000042419790
 12       0.000040273493
 13      -0.000014215401
 14      -0.000023085789
 15       0.000035014409
 16       0.000139189603
 17      -0.000029328661
 18      -0.000035976252
 19       0.000051574801
 20      -0.000009516507
 21      -0.000085860573
 22       0.000231128801
 23      -0.000018036050
 24      -0.000023232369
 25       0.000016867575
 26      -0.000069986176
 27      -0.000115312104
 28       0.000082508591
 29       0.000004370448
 30      -0.000004303291
 31      -0.000004713778
 32      -0.000012649988
 33       0.000003343462
 34      -0.000001072384
 35       0.000010299396
 36      -0.000097349569
 37       0.000286630751
 38       0.000006186685
 39       0.000001555482
 40      -0.000004525370
 41       0.000037474919
 42       0.000008385136
 43      -0.000028116958
 44      -0.000171510055
 45      -0.000010087616
 46       0.000141073236
 47       0.000016544107
 48      -0.000032795923
 49       0.000001211039
 50       0.000037663161
 51      -0.000006453358
 52      -0.998473291312
 53      -0.004732412461
 54      -0.000756436127
 55       0.000650607081
 56       0.000273097896
 57       0.000000428016
 58       0.000000108530
 59      -0.000000834198
 60      -0.000002684976
 61      -0.000001462292
 62       0.000003734728
 63      -0.000005648797
 64      -0.000009774736
 65       0.000002722505
 66       0.000285135095
 67       0.000274178205
 68      -0.000297874074
 69       0.000000879243
 70      -0.000007767054
 71      -0.000007626050
 72       0.000000875047
 73       0.000008061096
 74      -0.000003614943
 75       0.000032339166
 76       0.000031681118
 77      -0.000003410426
 78      -0.000032955612
 79       0.000011626479
 80      -0.000102603089
 81      -0.000099296684
 82       0.000008994941
 83       0.000098215046
 Sym=     1a
 Ene= -1.02086999940041E+02
 Spin= Alpha
 Occup= 2.000000
  1      -0.000031665441
  2       0.000164722000
  3      -0.001379368469
  4      -0.000025346495
  5      -0.000013807460
  6      -0.000001607453
  7      -0.000406391034
  8       0.000191649864
  9       0.000451970788
 10       0.000005993777
 11      -0.000142584877
 12       0.000087444604
 13       0.000004164867
 14      -0.000090414494
 15       0.000179937732
 16      -0.000035809393
 17      -0.000028151507
 18       0.000034392101
 19       0.000010781398
 20       0.000005948814
 21       0.000017262619
 22       0.000186962595
 23      -0.000037938099
 24       0.000045910224
 25       0.000020351321
 26      -0.000029700518
 27       0.000067350393
 28       0.000081063323
 29      -0.000010010440
 30       0.000020205245
 31      -0.000017267837
 32       0.000000666486
 33       0.000023414447
 34       0.994800589295
 35       0.019418151801
 36      -0.008287499548
 37       0.005294624449
 38       0.000071667775
 39      -0.000065224238
 40      -0.000070327864
 41       0.000220795978
 42      -0.000194156153
 43      -0.000209202243
 44      -0.000613145543
 45       0.000575224963
 46       0.000582101896
 47      -0.000006518369
 48      -0.000064701711
 49       0.000058321232
 50      -0.000002528429
 51      -0.000063623192
 52      -0.000003288630
 53       0.000007410257
 54      -0.000052652101
 55       0.000256853442
 56      -0.000255837705
 57       0.000007879135
 58      -0.000001902456
 59      -0.000007972128
 60      -0.000027723119
 61       0.000006574658
 62       0.000028037388
 63       0.000124650732
 64      -0.000026621642
 65      -0.000125297743
 66      -0.000184293376
 67       0.000042826328
 68       0.000179378772
 69      -0.000001835733
 70       0.000018373627
 71      -0.000002842145
 72      -0.000004291104
 73       0.000003135390
 74       0.000006374262
 75      -0.000067832646
 76       0.000010965735
 77       0.000015342582
 78      -0.000011975276
 79      -0.000006243042
 80       0.000120839986
 81      -0.000025679000
 82      -0.000021088124
 83       0.000026749588
 Sym=     1a
 Ene= -6.44056214036642E+01
 Spin= Alpha
 Occup= 2.000000
  1       0.000006199165
  2      -0.000445581974
  3       0.001688134066
  4       0.000042282181
  5       0.000110752294
  6      -0.000119223522
  7      -0.000405572346
  8      -0.000689241588
  9       0.000408013662
 10       0.000011509589
 11      -0.000127974207
 12      -0.000103799215
 13       0.000037737964
 14       0.000074905349
 15      -0.000002959983
 16      -0.000433404034
 17       0.000090198855
 18       0.000115926517
 19      -0.000124601985
 20       0.000024566010
 21       0.000210412096
 22      -0.000442899800
 23       0.000057728023
 24       0.000073990993
 25      -0.000058588746
 26       0.000214259648
 27       0.000298315009
 28      -0.000218379083
 29      -0.000007782990
 30       0.000018212865
 31       0.000025309080
 32       0.000024057234
 33      -0.000014613698
 34       0.000005568319
 35      -0.000047368423
 36       0.000352287807
 37      -0.000766379688
 38      -0.000023707625
 39      -0.000008141169
 40       0.000019975358
 41      -0.000136471726
 42      -0.000042118195
 43       0.000115962944
 44       0.000462073827
 45       0.000069818061
 46      -0.000403591127
 47      -0.000039671321
 48       0.000100249040
 49       0.000007571175
 50      -0.000081052732
 51       0.000003158289
 52       0.340755811814
 53      -1.055122515244
 54       0.001876112399
 55      -0.005465858317
 56       0.002254031101
 57      -0.000178960063
 58      -0.000164700239
 59       0.000155680094
 60       0.000012552868
 61       0.000008896007
 62      -0.000017629482
 63      -0.000106920020
 64      -0.000090105334
 65       0.000121420185
 66      -0.000221284517
 67      -0.000202078163
 68       0.000224523642
 69      -0.000001034665
 70       0.000033049753
 71       0.000030845800
 72      -0.000005168069
 73      -0.000032811614
 74       0.000003269689
 75      -0.000026281056
 76      -0.000025421042
 77       0.000009762965
 78       0.000032541179
 79      -0.000015311460
 80       0.000099548447
 81       0.000093252890
 82      -0.000024503785
 83      -0.000100780789
 Sym=     1a
 Ene= -5.72128189022363E+01
 Spin= Alpha
 Occup= 2.000000
  1       0.000013926107
  2       0.000005845871
  3       0.000108274420
  4       0.000023010647
  5       0.000017034384
  6      -0.000010411771
  7      -0.000010971612
  8       0.000017572797
  9       0.000031737251
 10      -0.000003962328
 11       0.000072230956
 12       0.000064529012
 13      -0.000006272048
 14      -0.000056647241
 15      -0.000026978839
 16       0.000033878502
 17      -0.000011464042
 18      -0.000013641026
 19       0.000025186069
 20      -0.000004606720
 21      -0.000034235778
 22       0.000039768100
 23      -0.000005117006
 24      -0.000014847636
 25       0.000012541030
 26      -0.000031318886
 27      -0.000042344450
 28       0.000030870990
 29      -0.000000775472
 30      -0.000007760581
 31      -0.000004484199
 32       0.000000416634
 33       0.000006765786
 34      -0.000001074396
 35       0.000009136151
 36      -0.000058687697
 37       0.000085255552
 38       0.000004325390
 39       0.000000704616
 40      -0.000003840589
 41       0.000023957789
 42       0.000004977234
 43      -0.000021137339
 44      -0.000059502551
 45      -0.000018272829
 46       0.000049782226
 47       0.000003388061
 48      -0.000015999747
 49      -0.000007558189
 50       0.000008790727
 51       0.000005374031
 52      -0.000101834837
 53       0.000317775028
 54      -0.000063220390
 55       0.000154443963
 56      -0.000189629876
 57      -0.602823167712
 58      -0.542810135131
 59       0.575263914879
 60      -0.008586727032
 61      -0.007732671793
 62       0.008196580752
 63       0.001204258676
 64       0.001085575865
 65      -0.001154097708
 66      -0.000425947461
 67      -0.000388098804
 68       0.000409305316
 69       0.000000729133
 70       0.000024544908
 71       0.000022630615
 72      -0.000001838296
 73      -0.000023494816
 74      -0.000000742859
 75      -0.000013259958
 76      -0.000011878716
 77       0.000000306559
 78       0.000011392982
 79       0.000002381208
 80       0.000008744019
 81       0.000007418826
 82       0.000001039763
 83      -0.000007019244
 Sym=     1a
 Ene= -5.72102266219054E+01
 Spin= Alpha
 Occup= 2.000000
  1       0.000000577308
  2      -0.000014270515
  3       0.000098300699
  4       0.000012610639
  5      -0.000005255502
  6       0.000001751223
  7      -0.000061822451
  8       0.000049389503
  9      -0.000046248121
 10       0.000004507430
 11       0.000003621991
 12      -0.000002442819
 13      -0.000011481592
 14      -0.000005489476
 15       0.000002248625
 16      -0.000025131129
 17       0.000009610797
 18      -0.000001218587
 19       0.000000303167
 20      -0.000000552760
 21      -0.000001128352
 22      -0.000043117978
 23      -0.000009405937
 24      -0.000005338979
 25       0.000006577463
 26      -0.000039359102
 27      -0.000013563741
 28       0.000017510539
 29       0.000001976271
 30      -0.000004165227
 31      -0.000006380333
 32      -0.000002537271
 33       0.000002967916
 34       0.000000677831
 35      -0.000005834356
 36       0.000040717548
 37      -0.000060933604
 38      -0.000001707439
 39      -0.000001014706
 40       0.000002287221
 41      -0.000011102719
 42      -0.000004681606
 43       0.000012768888
 44       0.000035989006
 45       0.000004103812
 46      -0.000023756356
 47       0.000000740702
 48       0.000008864438
 49       0.000005217339
 50      -0.000003336093
 51       0.000002826413
 52       0.000000539244
 53      -0.000001738628
 54      -0.000001523023
 55       0.000006892793
 56      -0.000016895283
 57       0.768950894334
 58      -0.571629549486
 59       0.266407022499
 60       0.010898351583
 61      -0.008102893657
 62       0.003776660212
 63      -0.001469289648
 64       0.001095320432
 65      -0.000511068624
 66       0.000457116101
 67      -0.000349881610
 68       0.000169515590
 69      -0.000008318189
 70      -0.000008099944
 71       0.000015237976
 72       0.000025365996
 73       0.000002487855
 74       0.000006418017
 75       0.000005976510
 76      -0.000012124166
 77      -0.000016967971
 78      -0.000001321853
 79      -0.000010076396
 80      -0.000008318535
 81       0.000018898373
 82       0.000023022367
 83       0.000001890159
 Sym=     1a
 Ene= -5.72101872555951E+01
 Spin= Alpha
 Occup= 2.000000
  1       0.000000138140
  2      -0.000002020620
  3       0.000030141465
  4      -0.000002077226
  5       0.000007284251
  6       0.000015845705
  7       0.000011099865
  8      -0.000014801493
  9      -0.000092656744
 10       0.000010362395
 11       0.000004030342
 12       0.000000329053
 13       0.000001805801
 14      -0.000003797639
 15       0.000016301774
 16      -0.000050204192
 17       0.000014934241
 18       0.000016421360
 19      -0.000003234055
 20       0.000000424225
 21       0.000005379214
 22      -0.000026094926
 23      -0.000003513728
 24      -0.000001184783
 25       0.000002098618
 26      -0.000017741891
 27       0.000004414020
 28       0.000011497852
 29       0.000000488837
 30       0.000001561852
 31      -0.000001391182
 32      -0.000001226626
 33       0.000004067926
 34      -0.000000707432
 35       0.000005924333
 36      -0.000034200861
 37       0.000015046063
 38       0.000002396942
 39       0.000001576611
 40      -0.000001935358
 41       0.000013169305
 42       0.000008690140
 43      -0.000011900681
 44      -0.000014781067
 45      -0.000032635745
 46       0.000025389844
 47       0.000004766550
 48      -0.000009182881
 49      -0.000001433679
 50       0.000005248382
 51       0.000008762088
 52       0.000005214745
 53      -0.000016384227
 54      -0.000000577187
 55      -0.000000741662
 56       0.000024461501
 57       0.185254827079
 58       0.606300615703
 59       0.766224177945
 60       0.002624724957
 61       0.008592328104
 62       0.010860360298
 63      -0.000352245187
 64      -0.001158055271
 65      -0.001466040137
 66       0.000120926176
 67       0.000373318879
 68       0.000450671171
 69      -0.000023859848
 70       0.000011475701
 71       0.000002982793
 72      -0.000007275721
 73       0.000015193131
 74       0.000016010921
 75      -0.000007374037
 76      -0.000000780706
 77       0.000004550709
 78      -0.000011673110
 79      -0.000022290784
 80       0.000008235442
 81      -0.000001096252
 82      -0.000005752162
 83       0.000018817793
 Sym=     1a
 Ene= -2.48391776300075E+01
 Spin= Alpha
 Occup= 2.000000
  1      -0.000035519356
  2       0.001034327049
  3      -0.017470961565
  4       0.000486951537
  5      -0.001005048613
  6       0.000583361245
  7       0.004138024495
  8      -0.001904794527
  9       0.003701670699
 10      -0.000002094663
 11       0.000001842338
 12       0.000018903691
 13      -0.000004982512
 14       0.000038956661
 15       0.001125812616
 16       0.002094974298
 17      -0.000466127058
 18       0.000284581726
 19      -0.000454228150
 20       0.989362727929
 21      -0.037964662649
 22       0.024178071642
 23       0.000975660452
 24      -0.001029600301
 25       0.000939601304
 26       0.002993051183
 27      -0.003381451812
 28       0.002900141691
 29      -0.000015923796
 30       0.000200636385
 31      -0.000184012547
 32      -0.000037422239
 33      -0.000188649579
 34      -0.000001119882
 35       0.000024763105
 36      -0.000968313440
 37       0.004316230112
 38       0.000017224976
 39      -0.000003337937
 40       0.000019339762
 41       0.000210930559
 42      -0.000116482194
 43       0.000071014488
 44      -0.002246255056
 45       0.001715884406
 46       0.000473022481
 47      -0.000405139097
 48      -0.000227542757
 49       0.000161846854
 50       0.000124688494
 51      -0.000413520991
 52      -0.000003597964
 53       0.000011016210
 54      -0.000058163718
 55      -0.000764903259
 56       0.004310383739
 57       0.000012770485
 58       0.000014079737
 59      -0.000009916755
 60      -0.000043435837
 61      -0.000047066251
 62       0.000032340012
 63       0.000125233306
 64       0.000049742476
 65       0.000045538923
 66       0.000826070950
 67       0.001915458502
 68      -0.002490710304
 69       0.000046893703
 70      -0.000039907500
 71      -0.000041468453
 72      -0.000040077251
 73       0.000029347104
 74      -0.000200845322
 75       0.000176186315
 76       0.000200516883
 77       0.000174409602
 78      -0.000129769572
 79       0.000580692454
 80      -0.000588475554
 81      -0.000835519729
 82      -0.000525458651
 83       0.000435737633
 Sym=     1a
 Ene= -1.04332623706435E+01
 Spin= Alpha
 Occup= 2.000000
  1       0.989145858235
  2       0.043753016219
  3      -0.026586536361
  4      -0.000534140577
  5       0.001231447779
  6      -0.000433072207
  7      -0.001782352011
  8       0.003525345719
  9      -0.003233359211
 10      -0.000003693025
 11       0.001438803922
 12      -0.000137180293
 13      -0.000035237903
 14      -0.000370858413
 15      -0.002902328215
 16       0.007403428743
 17       0.001156701694
 18       0.000605372505
 19       0.001281793556
 20      -0.000051347351
 21       0.000209480194
 22      -0.002551533928
 23       0.000150891784
 24      -0.000295144159
 25       0.000173654556
 26      -0.002714532819
 27       0.002148631434
 28      -0.002532115132
 29       0.000039575598
 30      -0.000760036903
 31       0.000764978804
 32       0.000027871972
 33       0.000775780228
 34      -0.000053713415
 35       0.000410192520
 36      -0.001247038289
 37       0.004905647176
 38       0.000118320846
 39      -0.000095361597
 40      -0.000109293757
 41       0.000372283377
 42      -0.000236076522
 43      -0.000352316074
 44      -0.000859257078
 45       0.000166738857
 46       0.001196605890
 47       0.000232428472
 48       0.000807526851
 49      -0.000885934887
 50       0.000065694346
 51       0.000930407984
 52       0.000025588485
 53      -0.000067379363
 54       0.000367721447
 55      -0.001180751825
 56       0.006018067177
 57      -0.000046604410
 58      -0.000046065653
 59       0.000056509354
 60       0.000154050574
 61       0.000151683068
 62      -0.000187504686
 63      -0.000284567046
 64      -0.000223021813
 65       0.000390960807
 66       0.002224541654
 67       0.001292508558
 68      -0.002040042759
 69      -0.000007174115
 70       0.000038586296
 71       0.000048022892
 72       0.000027355935
 73      -0.000052321789
 74       0.000033724264
 75      -0.000217259207
 76      -0.000266206470
 77      -0.000128171342
 78       0.000282134772
 79      -0.000093445970
 80       0.000553010755
 81       0.000784248117
 82       0.000402961129
 83      -0.000766710159
 Sym=     1a
 Ene= -9.62872855212078E+00
 Spin= Alpha
 Occup= 2.000000
  1       0.000083421908
  2      -0.000002043643
  3       0.000105593376
  4      -0.000101218702
  5       0.000112454850
  6       0.000185085279
  7       0.000264522380
  8       0.000536524244
  9      -0.000280128264
 10      -0.000027412687
 11       0.000503673893
 12      -0.000366778303
 13      -0.000039457121
 14       0.000398966907
 15      -0.000237043147
 16       0.000440305473
 17       0.000165524283
 18      -0.000159361803
 19      -0.000093946095
 20      -0.000031670005
 21      -0.000222062483
 22       0.000182886927
 23       0.000092301892
 24      -0.000122263196
 25      -0.000064510199
 26       0.000218710721
 27      -0.000375351225
 28      -0.000310122473
 29      -0.000006947113
 30      -0.000051216564
 31       0.000043897804
 32      -0.000007123010
 33      -0.000042526373
 34      -0.310106584457
 35       1.025140766109
 36       0.039444048302
 37      -0.012621639742
 38       0.003154659581
 39      -0.003071945371
 40      -0.003239193439
 41      -0.000652689619
 42       0.000588709967
 43       0.000650550031
 44       0.000469108203
 45      -0.000461058474
 46      -0.000459493871
 47       0.000026494468
 48      -0.000299718164
 49       0.000275346485
 50       0.000045371367
 51      -0.000282219961
 52       0.000008072001
 53      -0.000019880193
 54       0.000123639795
 55      -0.000709943171
 56       0.001256065611
 57      -0.000014903446
 58       0.000004542266
 59       0.000016458025
 60       0.000052069511
 61      -0.000015563569
 62      -0.000057423799
 63      -0.000265263278
 64       0.000066468305
 65       0.000289695728
 66       0.000747982726
 67      -0.000037835867
 68      -0.000812048693
 69       0.000010067829
 70      -0.000035515927
 71       0.000000548622
 72       0.000016139856
 73      -0.000002769283
 74      -0.000047413688
 75       0.000164116341
 76      -0.000002863127
 77      -0.000075667975
 78       0.000013216397
 79       0.000122475509
 80      -0.000409713568
 81      -0.000004010550
 82       0.000191848704
 83      -0.000022553633
 Sym=     1a
 Ene= -9.04723742776443E+00
 Spin= Alpha
 Occup= 2.000000
  1      -0.000003567860
  2      -0.000941331973
  3       0.002873377978
  4       0.000175083752
  5       0.000308099425
  6      -0.000354588108
  7      -0.000666348480
  8      -0.001321776595
  9       0.000765771771
 10       0.000013373699
 11      -0.000202868222
 12      -0.000151087753
 13       0.000072251339
 14       0.000097198211
 15       0.000062055547
 16      -0.000972922293
 17       0.000185382469
 18       0.000241617983
 19      -0.000247221758
 20       0.000047687912
 21       0.000397904573
 22      -0.000775215150
 23       0.000126996018
 24       0.000156989894
 25      -0.000129667341
 26       0.000495619038
 27       0.000639618898
 28      -0.000482309603
 29      -0.000014109205
 30       0.000030548718
 31       0.000051556280
 32       0.000041374880
 33      -0.000023904501
 34       0.000016831793
 35      -0.000127131856
 36       0.000804930421
 37      -0.001603192405
 38      -0.000047870319
 39      -0.000017643452
 40       0.000041933362
 41      -0.000313998769
 42      -0.000106278654
 43       0.000275829873
 44       0.000994418098
 45       0.000207258193
 46      -0.000888235037
 47      -0.000080651796
 48       0.000206642619
 49       0.000019278919
 50      -0.000156371443
 51      -0.000000389150
 52       0.129790245574
 53      -0.505036231726
 54       1.108899390816
 55      -0.003512652558
 56       0.005435662092
 57      -0.000974060342
 58      -0.000911165726
 59       0.000925048502
 60       0.002401406658
 61       0.002243935061
 62      -0.002282958133
 63      -0.000157998192
 64      -0.000123097128
 65       0.000198157768
 66      -0.000177669061
 67      -0.000144263608
 68       0.000158122283
 69       0.000020985393
 70      -0.000732937544
 71      -0.000686154622
 72       0.000061696006
 73       0.000666015084
 74       0.000015598028
 75      -0.000474549484
 76      -0.000441032892
 77       0.000056898046
 78       0.000443589442
 79      -0.000021098975
 80       0.000125429456
 81       0.000105556815
 82      -0.000055176505
 83      -0.000126121293
 Sym=     1a
 Ene= -7.31106920050815E+00
 Spin= Alpha
 Occup= 2.000000
  1       0.000094376686
  2      -0.000466310881
  3       0.005645046666
  4      -0.000023210667
  5       0.000162259289
  6       0.000065729481
  7       0.001326970687
  8      -0.001249826387
  9      -0.001171437382
 10       0.000003956140
 11       0.000587007497
 12      -0.000457864644
 13      -0.000017535300
 14       0.000499597953
 15      -0.000521718256
 16      -0.000473077105
 17       0.000073462684
 18       0.000041822169
 19       0.000036909362
 20      -0.000011831094
 21       0.000003221789
 22      -0.000667288724
 23       0.000085446684
 24      -0.000085711027
 25       0.000008951852
 26       0.000002340322
 27       0.000006536917
 28      -0.000063697190
 29       0.000041047598
 30      -0.000052961951
 31       0.000049346986
 32       0.000004934755
 33      -0.000021367575
 34       0.001838958849
 35      -0.006585668578
 36       0.002540184679
 37      -0.004994933675
 38       0.586905402050
 39      -0.529546419102
 40      -0.582037258514
 41      -0.029240000815
 42       0.026389736203
 43       0.028980208166
 44       0.005613837401
 45      -0.005101457350
 46      -0.005532381751
 47       0.000007931547
 48      -0.000146098211
 49       0.000143681620
 50       0.000003901417
 51      -0.000135390647
 52       0.000004464972
 53      -0.000008781391
 54       0.000082042299
 55      -0.000289123398
 56      -0.000347465710
 57      -0.000015684366
 58      -0.000001415447
 59       0.000014890848
 60       0.000052860853
 61       0.000004815274
 62      -0.000050173983
 63      -0.000203583803
 64      -0.000002618502
 65       0.000191896475
 66      -0.000067680356
 67      -0.000202094019
 68       0.000093490347
 69      -0.000000835963
 70      -0.000015944059
 71       0.000008789412
 72      -0.000001035418
 73      -0.000008591995
 74       0.000004911826
 75       0.000071297389
 76      -0.000045433831
 77       0.000006797191
 78       0.000044621029
 79      -0.000035545524
 80      -0.000082289019
 81       0.000150828878
 82      -0.000057991943
 83      -0.000148312828
 Sym=     1a
 Ene= -7.30085450678304E+00
 Spin= Alpha
 Occup= 2.000000
  1       0.000001083643
  2       0.000114895697
  3      -0.000986848278
  4       0.000011947702
  5       0.000044910067
  6      -0.000126123325
  7       0.000447844233
  8      -0.000709755819
  9       0.001210508857
 10       0.000059917404
 11      -0.000021371050
 12       0.000066292374
 13       0.000020013166
 14       0.000040669326
 15      -0.000081099854
 16       0.000077797393
 17       0.000008933572
 18       0.000094356228
 19      -0.000134602564
 20      -0.000007043446
 21      -0.000122108657
 22       0.000897061760
 23      -0.000049772589
 24       0.000058286058
 25       0.000062507921
 26      -0.000027995445
 27       0.000085235828
 28       0.000300479986
 29       0.000017816905
 30       0.000031411234
 31      -0.000015359098
 32       0.000001208710
 33       0.000044760003
 34      -0.000018879351
 35       0.000067054235
 36      -0.000068928097
 37       0.000305063349
 38      -0.168818890976
 39       0.624908794046
 40      -0.738799535190
 41       0.008096780673
 42      -0.029936398262
 43       0.035356314032
 44      -0.001278524541
 45       0.004320803144
 46      -0.004914868230
 47       0.000146010373
 48      -0.000068452698
 49       0.000009100792
 50       0.000066352954
 51       0.000067867484
 52       0.000004363424
 53      -0.000008243841
 54       0.000079961346
 55      -0.000483833955
 56       0.000451383887
 57      -0.000012914468
 58       0.000004007458
 59       0.000011828563
 60       0.000043765422
 61      -0.000013296332
 62      -0.000040322621
 63      -0.000189134962
 64       0.000044088362
 65       0.000201453507
 66       0.000170920390
 67      -0.000119513460
 68      -0.000459944075
 69       0.000009406556
 70      -0.000018485109
 71      -0.000003152795
 72       0.000004436149
 73      -0.000009766766
 74      -0.000047261241
 75       0.000088259255
 76       0.000016382509
 77      -0.000019691427
 78       0.000047601782
 79       0.000142365090
 80      -0.000194093795
 81      -0.000053128423
 82       0.000019148504
 83      -0.000132732846
 Sym=     1a
 Ene= -7.30055800659915E+00
 Spin= Alpha
 Occup= 2.000000
  1       0.000000191684