
                                 *****************
                                 * O   R   C   A *
                                 *****************

                                            #,                                       
                                            ###                                      
                                            ####                                     
                                            #####                                    
                                            ######                                   
                                           ########,                                 
                                     ,,################,,,,,                         
                               ,,#################################,,                 
                          ,,##########################################,,             
                       ,#########################################, ''#####,          
                    ,#############################################,,   '####,        
                  ,##################################################,,,,####,       
                ,###########''''           ''''###############################       
              ,#####''   ,,,,##########,,,,          '''####'''          '####       
            ,##' ,,,,###########################,,,                        '##       
           ' ,,###''''                  '''############,,,                           
         ,,##''                                '''############,,,,        ,,,,,,###''
      ,#''                                            '''#######################'''  
     '                                                          ''''####''''         
             ,#######,   #######,   ,#######,      ##                                
            ,#'     '#,  ##    ##  ,#'     '#,    #''#        ,####,   ,####,        
            ##       ##  ##   ,#'  ##            #'  '#       #'       #'  '#        
            ##       ##  #######   ##           ,######,      #####,   #    #        
            '#,     ,#'  ##    ##  '#,     ,#' ,#      #,     #,   #   #,  ,#        
             '#######'   ##     ##  '#######'  #'      '#     '####' # '####'        



                #########################################################
                #                        -***-                          #
                #          Department of theory and spectroscopy        #
                #                                                       #
                #                      Frank Neese                      #
                #                                                       #
                #     Directorship, Architecture, Infrastructure        #
                #                    SHARK, DRIVERS                     #
                #        Core code/Algorithms in most modules           #
                #                                                       #
                #        Max Planck Institute fuer Kohlenforschung      #
                #                Kaiser Wilhelm Platz 1                 #
                #                 D-45470 Muelheim/Ruhr                 #
                #                      Germany                          #
                #                                                       #
                #                  All rights reserved                  #
                #                        -***-                          #
                #########################################################


                         Program Version 6.0.1  -  RELEASE   -


 With contributions from (in alphabetic order):
[Max-Planck-Institut fuer Kohlenforschung]                               
  Daniel Aravena         : Magnetic Suceptibility                        
  Michael Atanasov       : Ab Initio Ligand Field Theory (pilot matlab implementation)
  Alexander A. Auer      : GIAO ZORA, VPT2 properties, NMR spectrum      
  Ute Becker             : All parallelization in ORCA, NUMFREQ, NUMCALC 
  Giovanni Bistoni       : ED, misc. LED, open-shell LED, HFLD           
  Martin Brehm           : Molecular dynamics                            
  Dmytro Bykov           : pre 5.0 version of the SCF Hessian            
  Marcos Casanova-Páez   : Triplet and SCS-CIS(D). UHF-(DLPNO)-IP/EA/STEOM-CCSD. UHF-CVS-IP/STEOM-CCSD   
  Vijay G. Chilkuri      : MRCI spin determinant printing, contributions to CSF-ICE 
  Pauline Colinet        : FMM embedding                                 
  Dipayan Datta          : RHF DLPNO-CCSD density                        
  Achintya Kumar Dutta   : EOM-CC, STEOM-CC                              
  Nicolas Foglia         : Exact transition moments, OPA infrastructure, MCD improvements    
  Dmitry Ganyushin       : Spin-Orbit,Spin-Spin,Magnetic field MRCI      
  Miquel Garcia-Rates    : C-PCM and meta-GGA Hessian, CCSD/C-PCM, Gaussian charge scheme 
  Tiago L. C. Gouveia    : GS-ROHF, GS-ROCIS                             
  Yang Guo               : DLPNO-NEVPT2, F12-NEVPT2, CIM, IAO-localization        
  Andreas Hansen         : Spin unrestricted coupled pair/coupled cluster methods 
  Ingolf Harden          : AUTO-CI MPn and infrastructure                
  Benjamin Helmich-Paris : MC-RPA, TRAH-(SCF,CASSCF), AVAS, COSX integrals, SCF dyn. polar. 
  Lee Huntington         : MR-EOM, pCC                                   
  Robert Izsak           : Overlap fitted RIJCOSX, COSX-SCS-MP3, EOM     
  Riya Kayal             : Wick's Theorem for AUTO-CI, AUTO-CI UHF-CCSDT 
  Emily Kempfer          : AUTO-CI, RHF CISDT and CCSDT                  
  Christian Kollmar      : KDIIS, OOCD, Brueckner-CCSD(T), CCSD density, CASPT2, CASPT2-K, improved NEVPT2 
  Axel Koslowski         : Symmetry handling                             
  Simone Kossmann        : meta-GGA functionals, TD-DFT gradient, OOMP2, (MP2 Hessian; deprecated post 5.0) 
  Lucas Lang             : DCDCAS                                        
  Marvin Lechner         : AUTO-CI (C++ implementation), FIC-MRCC        
  Spencer Leger          : CASSCF response                               
  Dagmar Lenk            : GEPOL surface, SMD, ORCA-2-JSON               
  Dimitrios Liakos       : Extrapolation schemes; Compound Job, initial MDCI parallelization 
  Dimitrios Manganas     : Further ROCIS development; embedding schemes. LFT, Crystal Embedding 
  Dimitrios Pantazis     : SARC Basis sets                               
  Anastasios Papadopoulos: AUTO-CI, single reference methods and gradients 
  Taras Petrenko         : pre 6.0 DFT Hessian and TD-DFT gradient, (ASA, deprecated), ECA, 1-Electron XAS/XES, NRVS 
  Peter Pinski           : DLPNO-MP2, DLPNO-MP2 Gradient                 
  Christoph Reimann      : Effective Core Potentials                     
  Marius Retegan         : Local ZFS, SOC                                
  Christoph Riplinger    : Optimizer, TS searches, QM/MM, DLPNO-CCSD(T), (RO)-DLPNO pert. Triples 
  Michael Roemelt        : Original ROCIS implementation                 
  Masaaki Saitow         : Open-shell DLPNO-CCSD energy and density      
  Barbara Sandhoefer     : DKH picture change effects                    
  Kantharuban Sivalingam : CASSCF convergence/infrastructure, NEVPT2 and variants, FIC-MRCI 
  Bernardo de Souza      : ESD, SOC TD-DFT                               
  Georgi L. Stoychev     : AutoAux, RI-MP2 NMR, DLPNO-MP2 response, X2C  
  Van Anh Tran           : RI-MP2 g-tensors                              
  Willem Van den Heuvel  : Paramagnetic NMR                              
  Zikuan Wang            : NOTCH, Electric field optimization            
  Frank Wennmohs         : Technical directorship and infrastructure     
  Hang Xu                : AUTO-CI-Response properties                   
                                                                         
[FACCTs GmbH]                                                            
  Markus Bursch, Miquel Garcia-Rates, Christoph Riplinger, Bernardo de Souza, Georgi L. Stoychev 
                                                                 
  APM, Basis sets (HGBS, AHGBS, def-TZVP (Ac-Lr), def2-XVPD (La-Lu)), CI-OPT, improved COSX, DLPNO-Multilevel,           
  DOCKER, DRACO, updates on ESD, GOAT, IRC, LR-CPCM, MBIS, meta-GGA TD-DFT gradient, ML-optimized integration grids, 
  MM, NACMEs, nearIR, NEB, NEB-TS, NL-DFT gradient (VV10), 2- and 3-layer-ONIOM, interface openCOSMO-RS, QMMM,   
  Crystal-QMMM, SF, symmetry and pop. for TD-DFT, r2SCAN hybrids, SOLVATOR                                   
                                                                         
[Other institutions]                                                     
  V. Asgeirsson          : NEB                                           
  Christoph Bannwarth    : sTDA-DFT, sTD-DFT, PBEh-3c, B97-3c, D3        
  Sebastian Ehlert       : rSCAN, r2SCAN, r2SCAN-3c, D4, dhf basis sets  
  Marvin Friede          : D4 for Fr, Ra, Ac-Lr                          
  Lars Goerigk           : TD-DFT with DH, B97 family of functionals     
  Stefan Grimme          : VdW corrections, initial TS optimization, DFT functionals, gCP, sTDA/sTD-DF 
  Waldemar Hujo          : DFT-NL                                        
  H. Jonsson             : NEB                                           
  Holger Kruse           : gCP                                           
  Marcel Mueller         : wB97X-3c, vDZP basis set                      
  Hagen Neugebauer       : wr2SCAN                                       
  Tobias Risthaus        : range-separated hybrid DFT                    
  Lukas Wittmann         : regularized MP2, r2SCAN double-hybrids, wr2SCAN        
                                                                         
We gratefully acknowledge several colleagues who have allowed us to      
interface, adapt or use parts of their codes:                            
  Ed Valeev, F. Pavosevic, A. Kumar             : LibInt (2-el integral package), F12 methods 
  Garnet Chan, S. Sharma, J. Yang, R. Olivares  : DMRG                   
  Ulf Ekstrom                                   : XCFun DFT Library      
  Mihaly Kallay                                 : mrcc  (arbitrary order and MRCC methods)
  Frank Weinhold                                : gennbo (NPA and NBO analysis)           
  Simon Mueller                                 : openCOSMO-RS                            
  Christopher J. Cramer and Donald G. Truhlar   : smd solvation model                     
  S Lehtola, MJT Oliveira, MAL Marques          : LibXC Library                           
  Liviu Ungur et al                             : ANISO software                          


 Your calculation uses the libint2 library for the computation of 2-el integrals
 For citations please refer to: http://libint.valeyev.net

 Your ORCA version has been built with support for libXC version: 6.2.2
 For citations please refer to: https://libxc.gitlab.io

 This ORCA versions uses:
   CBLAS   interface :  Fast vector & matrix operations
   LAPACKE interface :  Fast linear algebra routines
   SCALAPACK package :  Parallel linear algebra routines
   Shared memory     :  Shared parallel matrices
   BLAS/LAPACK       :  OpenBLAS 0.3.27  USE64BITINT DYNAMIC_ARCH NO_AFFINITY Haswell SINGLE_THREADED
        Core in use  :  Haswell
   Copyright (c) 2011-2014, The OpenBLAS Project




***************************************
The coordinates will be read from file: CH3Cl.xyz
***************************************


================================================================================

----- Orbital basis set information -----
Your calculation utilizes the basis: def2-SVP
   F. Weigend and R. Ahlrichs, Phys. Chem. Chem. Phys. 7, 3297 (2005).

----- AuxJ basis set information -----
Your calculation utilizes the auxiliary basis: SARC/J 
   decontracted def2/J up to Kr:
   F. Weigend, Phys. Chem. Chem. Phys. 8, 1057 (2006)
   and SARC auxiliary basis sets beyond Kr:
   D. A. Pantazis and F. Neese, J. Chem. Theory Comput. 5, 2229 (2009).
   D. A. Pantazis, X. Y. Chen, C. R. Landis and F. Neese, J. Chem. Theory Comput. 4, 908 (2008).
   D. A. Pantazis and F. Neese, Theor. Chem. Acc. 131, 1292 (2012).
   D. A. Pantazis and F. Neese, J. Chem. Theory Comput. 7, 677 (2011).

----- AuxC basis set information -----
Your calculation utilizes the auxiliary basis: def2-SVP/C
  H-La, Hf-Rn : A. Hellweg, C. Hattig, S. Hofener and W. Klopper, Theor. Chem. Acc. 117, 587 (2007).
        Ce-Lu : J. Chmela and M. E. Harding, Mol. Phys. (2018).

================================================================================
                                        WARNINGS
                       Please study these warnings very carefully!
================================================================================


WARNING: In scalar relativistic gradient/hessian runs we need the one-center approximation
  ===> : %rel OneCenter is turned on

WARNING: Requested PictureChange>0 is not available for DKH one-center approximation (OneCenter=true).
         Continueing the run with OneCenter=true and no picture change (PictureChange=0).
         If picture change is important, repeat the calculation with OneCenter=false. 

WARNING: Geometry Optimization
  ===> : Switching off AutoStart
         For restart on a previous wavefunction, please use MOREAD



***************************************
The coordinates will be read from file: CH3Cl.xyz
***************************************


================================================================================

----- Orbital basis set information -----
Your calculation utilizes the basis: def2-SVP
   F. Weigend and R. Ahlrichs, Phys. Chem. Chem. Phys. 7, 3297 (2005).

----- AuxJ basis set information -----
Your calculation utilizes the auxiliary basis: SARC/J 
   decontracted def2/J up to Kr:
   F. Weigend, Phys. Chem. Chem. Phys. 8, 1057 (2006)
   and SARC auxiliary basis sets beyond Kr:
   D. A. Pantazis and F. Neese, J. Chem. Theory Comput. 5, 2229 (2009).
   D. A. Pantazis, X. Y. Chen, C. R. Landis and F. Neese, J. Chem. Theory Comput. 4, 908 (2008).
   D. A. Pantazis and F. Neese, Theor. Chem. Acc. 131, 1292 (2012).
   D. A. Pantazis and F. Neese, J. Chem. Theory Comput. 7, 677 (2011).

----- AuxC basis set information -----
Your calculation utilizes the auxiliary basis: def2-SVP/C
  H-La, Hf-Rn : A. Hellweg, C. Hattig, S. Hofener and W. Klopper, Theor. Chem. Acc. 117, 587 (2007).
        Ce-Lu : J. Chmela and M. E. Harding, Mol. Phys. (2018).

================================================================================
                                        WARNINGS
                       Please study these warnings very carefully!
================================================================================


WARNING: Requested PictureChange>0 is not available for DKH one-center approximation (OneCenter=true).
         Continueing the run with OneCenter=true and no picture change (PictureChange=0).
         If picture change is important, repeat the calculation with OneCenter=false. 
INFO   : Checking CIS options ...

================================================================================
                                       INPUT FILE
================================================================================
NAME = CH3Cl.inp
|  1> !def2-SVP PBE0 SARC/J def2-SVP/C Opt
|  2> * xyzfile 0 1 CH3Cl.xyz
|  3> %scf
|  4> MaxIter 100
|  5> end
|  6> %rel
|  7> method DKH
|  8> order 2
|  9> picturechange 2
| 10> end
| 11> $new_job
| 12> !def2-SVP PBE0 RI-SOMF(1X) SARC/J def2-SVP/C
| 13> %TDDFT
| 14> NROOTS  20
| 15> DOSOC   TRUE
| 16> TDA     TRUE
| 17> TRIPLETS TRUE
| 18> END
| 19> * xyzfile 0 1 CH3Cl.xyz
| 20> %scf
| 21> MaxIter 100
| 22> end
| 23> %rel
| 24> method DKH
| 25> order 2
| 26> picturechange 2
| 27> SOCType 3
| 28> SOCFlags 1,3,3,0
| 29> SOCMaxCenter 4
| 30> end
| 31> 
| 32>                          ****END OF INPUT****
================================================================================


                 $$$$$$$$$$$$$$$$$$$$$$$$$$$$$$$$$$$$$$$$$$$$$$ 
                 $ THERE ARE  2 JOBS TO BE PROCESSED THIS RUN $
                 $$$$$$$$$$$$$$$$$$$$$$$$$$$$$$$$$$$$$$$$$$$$$$ 




                 $$$$$$$$$$$$$$$$  JOB NUMBER  1 $$$$$$$$$$$$$$


                       *****************************
                       * Geometry Optimization Run *
                       *****************************

Geometry optimization settings:
Update method            Update   .... BFGS
Choice of coordinates    CoordSys .... (2022) Redundant Internals
Initial Hessian          InHess   .... Almloef's Model
Max. no of cycles        MaxIter  .... 50

Convergence Tolerances:
Energy Change            TolE     ....  5.0000e-06 Eh
Max. Gradient            TolMAXG  ....  3.0000e-04 Eh/bohr
RMS Gradient             TolRMSG  ....  1.0000e-04 Eh/bohr
Max. Displacement        TolMAXD  ....  4.0000e-03 bohr
RMS Displacement         TolRMSD  ....  2.0000e-03 bohr
Strict Convergence                .... False

------------------------------------------------------------------------------
                        ORCA OPTIMIZATION COORDINATE SETUP
------------------------------------------------------------------------------

The optimization will be done in redundant internal coordinates (2022)
Making redundant internal coordinates   ...  (2022 redundants) done
Evaluating the initial hessian          ...  (Almloef) done
Evaluating the coordinates              ...  done
Calculating the B-matrix                .... done
Calculating the G-matrix                .... done
Diagonalizing the G-matrix              .... done
The first mode is                       ....    1
The number of degrees of freedom        ....    9

    -----------------------------------------------------------------
                    Redundant Internal Coordinates


    -----------------------------------------------------------------
         Definition                    Initial Value    Approx d2E/dq
    -----------------------------------------------------------------
      1. B(Cl  1,C   0)                  1.9259         0.195801   
      2. B(H   2,C   0)                  1.0959         0.352328   
      3. B(H   3,C   0)                  1.0959         0.352328   
      4. B(H   4,C   0)                  1.0959         0.352328   
      5. A(Cl  1,C   0,H   3)          108.4229         0.302977   
      6. A(H   2,C   0,H   3)          110.4989         0.288856   
      7. A(Cl  1,C   0,H   4)          108.4229         0.302977   
      8. A(H   2,C   0,H   4)          110.4989         0.288856   
      9. A(H   3,C   0,H   4)          110.4989         0.288856   
     10. A(Cl  1,C   0,H   2)          108.4229         0.302977   
    -----------------------------------------------------------------

Number of atoms                         .... 5
Number of degrees of freedom            .... 10


         *************************************************************
         *                GEOMETRY OPTIMIZATION CYCLE   1            *
         *************************************************************
---------------------------------
CARTESIAN COORDINATES (ANGSTROEM)
---------------------------------
  C     -0.007049   -0.007049   -0.007049
  Cl     1.104843    1.104843    1.104843
  H     -0.631498    0.641958   -0.631498
  H      0.641958   -0.631498   -0.631498
  H     -0.631498   -0.631498    0.641958

----------------------------
CARTESIAN COORDINATES (A.U.)
----------------------------
  NO LB      ZA    FRAG     MASS         X           Y           Z
   0 C     6.0000    0    12.011   -0.013320   -0.013320   -0.013320
   1 Cl   17.0000    0    35.453    2.087850    2.087851    2.087851
   2 H     1.0000    0     1.008   -1.193358    1.213125   -1.193358
   3 H     1.0000    0     1.008    1.213125   -1.193358   -1.193358
   4 H     1.0000    0     1.008   -1.193358   -1.193358    1.213125

--------------------------------
INTERNAL COORDINATES (ANGSTROEM)
--------------------------------
 C      0   0   0     0.000000000000     0.00000000     0.00000000
 Cl     1   0   0     1.925853022749     0.00000000     0.00000000
 H      1   2   0     1.095939431851   108.42285679     0.00000000
 H      1   2   3     1.095939337792   108.42286507   120.00000511
 H      1   2   3     1.095939298910   108.42285803   240.00001216

---------------------------
INTERNAL COORDINATES (A.U.)
---------------------------
 C      0   0   0     0.000000000000     0.00000000     0.00000000
 Cl     1   0   0     3.639334787181     0.00000000     0.00000000
 H      1   2   0     2.071025385563   108.42285679     0.00000000
 H      1   2   3     2.071025207817   108.42286507   120.00000511
 H      1   2   3     2.071025134341   108.42285803   240.00001216

---------------------
BASIS SET INFORMATION
---------------------
There are 3 groups of distinct atoms

 Group   1 Type C   : 7s4p1d contracted to 3s2p1d pattern {511/31/1}
 Group   2 Type Cl  : 10s7p1d contracted to 4s3p1d pattern {5311/511/1}
 Group   3 Type H   : 4s1p contracted to 2s1p pattern {31/1}

Atom   0C    basis set group =>   1
Atom   1Cl   basis set group =>   2
Atom   2H    basis set group =>   3
Atom   3H    basis set group =>   3
Atom   4H    basis set group =>   3
---------------------------------
AUXILIARY/J BASIS SET INFORMATION
---------------------------------
There are 3 groups of distinct atoms

 Group   1 Type C   : 12s5p4d2f1g contracted to 12s5p4d2f1g pattern {111111111111/11111/1111/11/1}
 Group   2 Type Cl  : 14s5p5d2f1g contracted to 14s5p5d2f1g pattern {11111111111111/11111/11111/11/1}
 Group   3 Type H   : 5s2p1d contracted to 5s2p1d pattern {11111/11/1}

Atom   0C    basis set group =>   1
Atom   1Cl   basis set group =>   2
Atom   2H    basis set group =>   3
Atom   3H    basis set group =>   3
Atom   4H    basis set group =>   3
---------------------------------
AUXILIARY/C BASIS SET INFORMATION
---------------------------------
There are 3 groups of distinct atoms

 Group   1 Type C   : 8s6p5d3f contracted to 6s5p4d1f pattern {311111/21111/2111/3}
 Group   2 Type Cl  : 10s7p7d3f contracted to 8s5p5d2f pattern {31111111/31111/31111/12}
 Group   3 Type H   : 4s3p2d contracted to 3s2p1d pattern {211/21/2}

Atom   0C    basis set group =>   1
Atom   1Cl   basis set group =>   2
Atom   2H    basis set group =>   3
Atom   3H    basis set group =>   3
Atom   4H    basis set group =>   3
------------------------------------------------------------------------------
                             ORCA STARTUP CALCULATIONS
                           -- RI-GTO INTEGRALS CHOSEN --
------------------------------------------------------------------------------
------------------------------------------------------------------------------
                   ___                                                        
                  /   \      - P O W E R E D   B Y -                         
                 /     \                                                     
                 |  |  |   _    _      __       _____    __    __             
                 |  |  |  | |  | |    /  \     |  _  \  |  |  /  |          
                  \  \/   | |  | |   /    \    | | | |  |  | /  /          
                 / \  \   | |__| |  /  /\  \   | |_| |  |  |/  /          
                |  |  |   |  __  | /  /__\  \  |    /   |      \           
                |  |  |   | |  | | |   __   |  |    \   |  |\   \          
                \     /   | |  | | |  |  |  |  | |\  \  |  | \   \       
                 \___/    |_|  |_| |__|  |__|  |_| \__\ |__|  \__/        
                                                                              
                      - O R C A' S   B I G   F R I E N D -                    
                                      &                                       
                       - I N T E G R A L  F E E D E R -                       
                                                                              
 v1 FN, 2020, v2 2021, v3 2022-2024                                           
------------------------------------------------------------------------------


----------------------
SHARK INTEGRAL PACKAGE
----------------------

Number of atoms                             ...      5
Number of basis functions                   ...     47
Number of shells                            ...     23
Maximum angular momentum                    ...      2
Integral batch strategy                     ... SHARK/LIBINT Hybrid
RI-J (if used) integral strategy            ... SPLIT-RIJ (Revised 2003 algorithm where possible)
Printlevel                                  ...      1
Contraction scheme used                     ... SEGMENTED contraction
Prescreening option                         ... SCHWARTZ
   Thresh                                   ... 2.500e-11
   Tcut                                     ... 2.500e-12
   Tpresel                                  ... 2.500e-12 
Coulomb Range Separation                    ... NOT USED
Exchange Range Separation                   ... NOT USED
Multipole approximations                    ... NOT USED
Finite Nucleus Model                        ... NOT USED
CABS basis                                  ... NOT available
Auxiliary Coulomb fitting basis             ... AVAILABLE
   # of basis functions in Aux-J            ...    195
   # of shells in Aux-J                     ...     75
   Maximum angular momentum in Aux-J        ...      4
Auxiliary J/K fitting basis                 ... NOT available
Auxiliary Correlation fitting basis         ... AVAILABLE
   # of basis functions in Aux-C            ...    152
   # of shells in Aux-C                     ...     54
   Maximum angular momentum in Aux-C        ...      3
Auxiliary 'external' fitting basis          ... NOT available

Checking pre-screening integrals            ... done (  0.0 sec) Dimension = 23
Check shell pair data                       ... done (  0.0 sec)
Shell pair information
Shell pair cut-off parameter TPreSel        ...   2.5e-12
Total number of shell pairs                 ...       276
Shell pairs after pre-screening             ...       275
Total number of primitive shell pairs       ...      1080
Primitive shell pairs kept                  ...       926
          la=0 lb=0:     90 shell pairs
          la=1 lb=0:    104 shell pairs
          la=1 lb=1:     36 shell pairs
          la=2 lb=0:     26 shell pairs
          la=2 lb=1:     16 shell pairs
          la=2 lb=2:      3 shell pairs

Calculating one electron integrals          ... done (  0.0 sec)
Calculating RI/J V-Matrix + Cholesky decomp.... done (  0.0 sec)
Calculating RI/C V-Matrix + Cholesky decomp.... done (  0.0 sec)
Calculating Nuclear repulsion               ... done (  0.0 sec) ENN=     48.400332879914 Eh

Diagonalization of the overlap matrix:
Smallest eigenvalue                        ... 1.319e-02
Time for diagonalization                   ...    0.002 sec
Threshold for overlap eigenvalues          ... 1.000e-07
Number of eigenvalues below threshold      ... 0
Time for construction of square roots      ...    0.000 sec
Total time needed                          ...    0.002 sec

-------------------
DFT GRID GENERATION
-------------------

General Integration Accuracy     IntAcc      ... 4.388
Radial Grid Type                 RadialGrid  ... OptM3 with GC (2021)
Angular Grid (max. ang.)         AngularGrid ... 4 (Lebedev-302)
Angular grid pruning method      GridPruning ... 4 (adaptive)
Weight generation scheme         WeightScheme... mBecke (2022)
Basis function cutoff            BFCut       ... 1.0000e-11
Integration weight cutoff        WCut        ... 1.0000e-14
Partially contracted basis set               ... off
Rotationally invariant grid construction     ... off
Angular grids for H and He will be reduced by one unit

Total number of grid points                  ...    23309
Total number of batches                      ...      366
Average number of points per batch           ...       63
Average number of grid points per atom       ...     4662

--------------------
COSX GRID GENERATION
--------------------

GRIDX 1
-------
General Integration Accuracy     IntAcc      ... 3.816
Radial Grid Type                 RadialGrid  ... OptM3 with GC (2021)
Angular Grid (max. ang.)         AngularGrid ... 1 (Lebedev-50)
Angular grid pruning method      GridPruning ... 4 (adaptive)
Weight generation scheme         WeightScheme... mBecke (2022)
Basis function cutoff            BFCut       ... 1.0000e-11
Integration weight cutoff        WCut        ... 1.0000e-14
Partially contracted basis set               ... on
Rotationally invariant grid construction     ... off
Angular grids for H and He will be reduced by one unit

Total number of grid points                  ...     4015
Total number of batches                      ...       34
Average number of points per batch           ...      118
Average number of grid points per atom       ...      803
UseSFitting                                  ... on

GRIDX 2
-------
General Integration Accuracy     IntAcc      ... 4.020
Radial Grid Type                 RadialGrid  ... OptM3 with GC (2021)
Angular Grid (max. ang.)         AngularGrid ... 2 (Lebedev-110)
Angular grid pruning method      GridPruning ... 4 (adaptive)
Weight generation scheme         WeightScheme... mBecke (2022)
Basis function cutoff            BFCut       ... 1.0000e-11
Integration weight cutoff        WCut        ... 1.0000e-14
Partially contracted basis set               ... on
Rotationally invariant grid construction     ... off
Angular grids for H and He will be reduced by one unit

Total number of grid points                  ...     6195
Total number of batches                      ...       51
Average number of points per batch           ...      121
Average number of grid points per atom       ...     1239
UseSFitting                                  ... on

GRIDX 3
-------
General Integration Accuracy     IntAcc      ... 4.338
Radial Grid Type                 RadialGrid  ... OptM3 with GC (2021)
Angular Grid (max. ang.)         AngularGrid ... 3 (Lebedev-194)
Angular grid pruning method      GridPruning ... 4 (adaptive)
Weight generation scheme         WeightScheme... mBecke (2022)
Basis function cutoff            BFCut       ... 1.0000e-11
Integration weight cutoff        WCut        ... 1.0000e-14
Partially contracted basis set               ... on
Rotationally invariant grid construction     ... off
Angular grids for H and He will be reduced by one unit

Total number of grid points                  ...    14388
Total number of batches                      ...      115
Average number of points per batch           ...      125
Average number of grid points per atom       ...     2878
UseSFitting                                  ... on
Initializing property integral containers    ... done (  0.0 sec)

SHARK setup successfully completed in   0.3 seconds

Maximum memory used throughout the entire STARTUP-calculation: 11.2 MB
------------------------------------------------------------------------------
                          ORCA RELATIVISTIC HAMILTONIAN
------------------------------------------------------------------------------

Relativistic Method            ... DKH
Order of DKH treatment         ...   2
Treatment of potential         ... V(e,N)
Eps parameter for DKH          ...   0.00000000010000
Nucleus model                  ... Point Nucleus
Speed of light used            ... 137.03598950000000


            ************************************************
            *        DOUGLAS-KROLL-HESS HAMILTONIAN        *
            *   Programmed by FN according to literature   *
            *        procedures. Special thanks to         *
            *       B.A. Hess, M. Reiher and A. Wolf       *
            *     University Erlangen-Nuernberg/Bonn       *
            ************************************************

Uncontracting the basis (first version)        ... done
Number of contracted basis functions           ...   47
Number of uncontracted basis functions         ...   81
Initializing the DKH file                      ... done
One center approximation for DKH is active
Finding unique atoms                      ... 3 atom types
 ATOMIC NUMBER   6
          ... doing integrals
          ... Computing the DKH transformation
          ... Transforming V and pVp to p**2 space
          ... First transformation of V and pVp
          ... Second transformation of Veff
          ... Adding kinetic energy
          ... Back transformation of Veff to r-space
          ... Recontracting the H-matrix
          ... Computing the DKH correction to the H-matrix
          ... adding submatrics to 1 actual atoms
 ATOMIC NUMBER  17
          ... doing integrals
          ... Computing the DKH transformation
          ... Transforming V and pVp to p**2 space
          ... First transformation of V and pVp
          ... Second transformation of Veff
          ... Adding kinetic energy
          ... Back transformation of Veff to r-space
          ... Recontracting the H-matrix
          ... Computing the DKH correction to the H-matrix
          ... adding submatrics to 1 actual atoms
 ATOMIC NUMBER   1
          ... doing integrals
          ... Computing the DKH transformation
          ... Transforming V and pVp to p**2 space
          ... First transformation of V and pVp
          ... Second transformation of Veff
          ... Adding kinetic energy
          ... Back transformation of Veff to r-space
          ... Recontracting the H-matrix
          ... Computing the DKH correction to the H-matrix
          ... adding submatrics to 3 actual atoms
Storing DKH matrices                           ... done
Getting S**(-1/2)                              ... done
Reading the original H-matrix                  ... done
Adding DKH correction to the H-matrix          ... done
Storing the new modified H-matrix              ... done

Maximum memory used throughout the entire REL-calculation: 11.2 MB
-------------------------------------------------------------------------------
                                 ORCA GUESS
                   Start orbitals & Density for SCF / CASSCF
-------------------------------------------------------------------------------

------------
SCF SETTINGS
------------
Hamiltonian:
 Density Functional     Method          .... DFT(GTOs)
 Exchange Functional    Exchange        .... PBE
   PBE kappa parameter   XKappa         ....  0.804000
   PBE mue parameter    XMuePBE         ....  0.219520
 Correlation Functional Correlation     .... PBE
   PBE beta parameter  CBetaPBE         ....  0.066725
 LDA part of GGA corr.  LDAOpt          .... PW91-LDA
 Gradients option       PostSCFGGA      .... off
 Hybrid DFT is turned on
   Fraction HF Exchange ScalHFX         ....  0.250000
   Scaling of DF-GGA-X  ScalDFX         ....  0.750000
   Scaling of DF-GGA-C  ScalDFC         ....  1.000000
   Scaling of DF-LDA-C  ScalLDAC        ....  1.000000
   Perturbative correction              ....  0.000000
   NL short-range parameter             ....  6.900000
 RI-approximation to the Coulomb term is turned on
   Number of AuxJ basis functions       .... 195
   RIJ-COSX (HFX calculated with COS-X)).... on

Relativistic Settings:
 Scalar relativistic method             .... Douglas-Kroll-Hess
 Order of DKH procedure    Order        ....    2
 Mode of DKH-treatment                  .... V=V(e,N)
 Speed of light used       Velit        ....       137.035989
 Cutoff-constant           Eps          ....            1e-10 


General Settings:
 Integral files         IntName         .... CH3Cl
 Hartree-Fock type      HFTyp           .... RHF
 Total Charge           Charge          ....    0
 Multiplicity           Mult            ....    1
 Number of Electrons    NEL             ....   26
 Basis Dimension        Dim             ....   47
 Nuclear Repulsion      ENuc            ....     48.4003328799 Eh

Convergence Acceleration:
 AO-DIIS                CNVDIIS         .... on
   Start iteration      DIISMaxIt       ....    12
   Startup error        DIISStart       ....  0.200000
   # of expansion vecs  DIISMaxEq       ....     5
   Bias factor          DIISBfac        ....   1.050
   Max. coefficient     DIISMaxC        ....  10.000
 MO-DIIS                CNVKDIIS        .... off
 Trust-Rad. Augm. Hess. CNVTRAH         .... auto
   Auto Start mean grad. ratio tolernc. ....  1.125000
   Auto Start start iteration           ....    50
   Auto Start num. interpolation iter.  ....    10
   Max. Number of Micro iterations      ....    24
   Max. Number of Macro iterations      .... Maxiter - #DIIS iter
   Number of Davidson start vectors     ....     2
   Converg. threshold    (grad. norm)   ....   1.000e-05
   Grad. Scal. Fac. for Micro threshold ....   0.100
   Minimum threshold for Micro iter.    ....   1.000e-02
   NR start threshold (gradient norm)   ....   1.000e-04
   Initial trust radius                 ....   0.400
   Minimum AH scaling param. (alpha)    ....   1.000
   Maximum AH scaling param. (alpha)    .... 1000.000
   Quad. conv. algorithm                .... NR
   White noise on init. David. guess    .... on
   Maximum white noise                  ....   0.010
   Pseudo random numbers                .... off
   Inactive MOs                         .... canonical
   Orbital update algorithm             .... Taylor
   Preconditioner                       .... Diag
   Full preconditioner red. dimension   ....   250
 SOSCF                  CNVSOSCF        .... on
   Start iteration      SOSCFMaxIt      ....   150
   Startup grad/error   SOSCFStart      ....  0.003300
   Hessian update       SOSCFHessUp     .... L-BFGS
 Level Shifting         CNVShift        .... on
   Level shift para.    LevelShift      ....    0.2500
   Turn off err/grad.   ShiftErr        ....    0.0010
 Zerner damping         CNVZerner       .... off
 Static damping         CNVDamp         .... on
   Fraction old density DampFac         ....    0.7000
   Max. Damping (<1)    DampMax         ....    0.9800
   Min. Damping (>=0)   DampMin         ....    0.0000
   Turn off err/grad.   DampErr         ....    0.1000

SCF Procedure:
 Maximum # iterations   MaxIter         ....   100
 SCF integral mode      SCFMode         .... Direct
   Integral package                     .... SHARK and LIBINT hybrid scheme
 Reset frequency        DirectResetFreq ....    20
 Integral Threshold     Thresh          ....  2.500e-11 Eh
 Primitive CutOff       TCut            ....  2.500e-12 Eh

Convergence Tolerance:
 Convergence Check Mode ConvCheckMode   .... Total+1el-Energy
 Convergence forced     ConvForced      .... 0
 Energy Change          TolE            ....  1.000e-08 Eh
 1-El. energy change                    ....  1.000e-05 Eh
 Orbital Gradient       TolG            ....  1.000e-05
 Orbital Rotation angle TolX            ....  1.000e-05
 DIIS Error             TolErr          ....  5.000e-07

------------------------------
INITIAL GUESS: MODEL POTENTIAL
------------------------------
Loading DKH relativistic densities                 ... done
Calculating cut-offs                               ... done
Initializing the effective Hamiltonian             ... done
Setting up the integral package (SHARK)            ... done
Starting the Coulomb interaction                   ... done (   0.0 sec)
Making the grid                                    ... done (   0.0 sec)
Mapping shells                                     ... done
Starting the XC term evaluation                    ... done (   0.0 sec)
  promolecular density results
     # of electrons  =     26.001555748
     EX              =    -33.490320341
     EC              =     -0.934124122
     EX+EC           =    -34.424444463
Transforming the Hamiltonian                       ... done (   0.0 sec)
Diagonalizing the Hamiltonian                      ... done (   0.0 sec)
Back transforming the eigenvectors                 ... done (   0.0 sec)
Now organizing SCF variables                       ... done
                      ------------------
                      INITIAL GUESS DONE (   0.1 sec)
                      ------------------
             **** ENERGY FILE WAS UPDATED (CH3Cl.en.tmp) ****
Finished Guess after   0.1 sec
Maximum memory used throughout the entire GUESS-calculation: 6.2 MB

-------------------------------------------------------------------------------------------
                                      ORCA LEAN-SCF
                              memory conserving SCF solver
-------------------------------------------------------------------------------------------

----------------------------------------D-I-I-S--------------------------------------------
Iteration    Energy (Eh)           Delta-E    RMSDP     MaxDP     DIISErr   Damp  Time(sec)
-------------------------------------------------------------------------------------------
               ***  Starting incremental Fock matrix formation  ***
    1    -500.9351365650296657     0.00e+00  3.08e-03  4.70e-02  9.35e-02  0.700   0.3
    2    -500.9455768297714258    -1.04e-02  2.24e-03  2.90e-02  4.99e-02  0.700   0.2
                               ***Turning on AO-DIIS***
    3    -500.9503379506036254    -4.76e-03  1.07e-03  1.46e-02  2.00e-02  0.700   0.2
    4    -500.9531568048383861    -2.82e-03  1.99e-03  2.69e-02  1.15e-02  0.000   0.2
                              *** Initializing SOSCF ***
---------------------------------------S-O-S-C-F--------------------------------------
Iteration    Energy (Eh)           Delta-E    RMSDP     MaxDP     MaxGrad    Time(sec)
--------------------------------------------------------------------------------------
    5    -500.9592048533552315    -6.05e-03  3.00e-04  4.77e-03  2.07e-03     0.2
               *** Restarting incremental Fock matrix formation ***
    6    -500.9592439501607259    -3.91e-05  1.04e-04  9.37e-04  4.13e-04     0.2
    7    -500.9592433215136680     6.29e-07  5.72e-05  6.16e-04  5.81e-04     0.2
    8    -500.9592450572664575    -1.74e-06  3.57e-06  3.60e-05  1.01e-05     0.2
    9    -500.9592450585428196    -1.28e-09  1.36e-06  1.92e-05  6.29e-06     0.2
                 **** Energy Check signals convergence ****

               *****************************************************
               *                     SUCCESS                       *
               *           SCF CONVERGED AFTER   9 CYCLES          *
               *****************************************************

Recomputing exchange energy using gridx3       ... done (    0.327 sec)
Old exchange energy                            :     -8.435900606 Eh
New exchange energy                            :     -8.435940042 Eh
Exchange energy change after final integration :     -0.000039436 Eh
Total energy after final integration           :   -500.959284495 Eh
             **** ENERGY FILE WAS UPDATED (CH3Cl.en.tmp) ****

----------------
TOTAL SCF ENERGY
----------------

Total Energy       :       -500.95928449471273 Eh          -13631.79516 eV

Components:
Nuclear Repulsion  :         48.40033287991354 Eh            1317.04001 eV
Electronic Energy  :       -549.35957793845637 Eh          -14948.83410 eV
One Electron Energy:       -785.84865647591369 Eh          -21384.02909 eV
Two Electron Energy:        236.48907853745732 Eh            6435.19499 eV

Virial components:
Potential Energy   :       -999.54532215884421 Eh          -27199.01099 eV
Kinetic Energy     :        498.58603766413148 Eh           13567.21583 eV
Virial Ratio       :          2.00475995445380

DFT components:
N(Alpha)           :       13.000002684019 electrons
N(Beta)            :       13.000002684019 electrons
N(Total)           :       26.000005368039 electrons
E(X)               :      -25.163806101289 Eh       
E(C)               :       -0.944614457970 Eh       
E(XC)              :      -26.108420559259 Eh       

---------------
SCF CONVERGENCE
---------------

  Last Energy change         ...    1.2764e-09  Tolerance :   1.0000e-08
  Last MAX-Density change    ...    1.9159e-05  Tolerance :   1.0000e-07
  Last RMS-Density change    ...    1.3573e-06  Tolerance :   5.0000e-09
  Last DIIS Error            ...    2.0747e-03  Tolerance :   5.0000e-07
  Last Orbital Gradient      ...    6.2881e-06  Tolerance :   1.0000e-05
  Last Orbital Rotation      ...    5.6699e-06  Tolerance :   1.0000e-05


----------------
ORBITAL ENERGIES
----------------

  NO   OCC          E(Eh)            E(eV) 
   0   2.0000    -102.049344     -2776.9038 
   1   2.0000     -10.305865      -280.4368 
   2   2.0000      -9.587332      -260.8846 
   3   2.0000      -7.270330      -197.8357 
   4   2.0000      -7.259500      -197.5410 
   5   2.0000      -7.259500      -197.5410 
   6   2.0000      -0.840936       -22.8830 
   7   2.0000      -0.698763       -19.0143 
   8   2.0000      -0.455543       -12.3960 
   9   2.0000      -0.455543       -12.3960 
  10   2.0000      -0.404858       -11.0167 
  11   2.0000      -0.301702        -8.2097 
  12   2.0000      -0.301702        -8.2097 
  13   0.0000       0.001994         0.0543 
  14   0.0000       0.081066         2.2059 
  15   0.0000       0.129363         3.5201 
  16   0.0000       0.129363         3.5201 
  17   0.0000       0.419752        11.4220 
  18   0.0000       0.419752        11.4220 
  19   0.0000       0.446713        12.1557 
  20   0.0000       0.524160        14.2631 
  21   0.0000       0.642978        17.4963 
  22   0.0000       0.658183        17.9101 
  23   0.0000       0.658183        17.9101 
*Only the first 10 virtual orbitals were printed.

                    ********************************
                    * MULLIKEN POPULATION ANALYSIS *
                    ********************************

-----------------------
MULLIKEN ATOMIC CHARGES
-----------------------
   0 C :   -0.105607
   1 Cl:   -0.205206
   2 H :    0.103604
   3 H :    0.103604
   4 H :    0.103604
Sum of atomic charges:    0.0000000

--------------------------------
MULLIKEN REDUCED ORBITAL CHARGES
--------------------------------
  0 C s       :     3.171587  s :     3.171587
      pz      :     0.969063  p :     2.907189
      px      :     0.969063
      py      :     0.969063
      dz2     :     0.001376  d :     0.026831
      dxz     :     0.008027
      dyz     :     0.008027
      dx2y2   :     0.001376
      dxy     :     0.008027

  1 Cls       :     5.964585  s :     5.964585
      pz      :     3.739509  p :    11.218526
      px      :     3.739509
      py      :     3.739508
      dz2     :     0.002138  d :     0.022096
      dxz     :     0.005940
      dyz     :     0.005940
      dx2y2   :     0.002138
      dxy     :     0.005940

  2 H s       :     0.872745  s :     0.872745
      pz      :     0.007763  p :     0.023651
      px      :     0.007763
      py      :     0.008125

  3 H s       :     0.872745  s :     0.872745
      pz      :     0.007763  p :     0.023651
      px      :     0.008125
      py      :     0.007763

  4 H s       :     0.872745  s :     0.872745
      pz      :     0.008125  p :     0.023651
      px      :     0.007763
      py      :     0.007763



                     *******************************
                     * LOEWDIN POPULATION ANALYSIS *
                     *******************************

----------------------
LOEWDIN ATOMIC CHARGES
----------------------
   0 C :   -0.067996
   1 Cl:   -0.046037
   2 H :    0.038011
   3 H :    0.038011
   4 H :    0.038011

-------------------------------
LOEWDIN REDUCED ORBITAL CHARGES
-------------------------------
  0 C s       :     2.933304  s :     2.933304
      pz      :     1.024021  p :     3.072062
      px      :     1.024021
      py      :     1.024021
      dz2     :     0.002585  d :     0.062629
      dxz     :     0.019153
      dyz     :     0.019153
      dx2y2   :     0.002585
      dxy     :     0.019153

  1 Cls       :     5.843863  s :     5.843863
      pz      :     3.726601  p :    11.179804
      px      :     3.726601
      py      :     3.726601
      dz2     :     0.001958  d :     0.022369
      dxz     :     0.006151
      dyz     :     0.006151
      dx2y2   :     0.001958
      dxy     :     0.006151

  2 H s       :     0.892416  s :     0.892416
      pz      :     0.023503  p :     0.069573
      px      :     0.023503
      py      :     0.022566

  3 H s       :     0.892416  s :     0.892416
      pz      :     0.023503  p :     0.069573
      px      :     0.022566
      py      :     0.023503

  4 H s       :     0.892416  s :     0.892416
      pz      :     0.022566  p :     0.069573
      px      :     0.023503
      py      :     0.023503



                      *****************************
                      * MAYER POPULATION ANALYSIS *
                      *****************************

  NA   - Mulliken gross atomic population
  ZA   - Total nuclear charge
  QA   - Mulliken gross atomic charge
  VA   - Mayer's total valence
  BVA  - Mayer's bonded valence
  FA   - Mayer's free valence

  ATOM       NA         ZA         QA         VA         BVA        FA
  0 C      6.1056     6.0000    -0.1056     3.9117     3.9117     0.0000
  1 Cl    17.2052    17.0000    -0.2052     1.0103     1.0103     0.0000
  2 H      0.8964     1.0000     0.1036     0.9747     0.9747     0.0000
  3 H      0.8964     1.0000     0.1036     0.9747     0.9747    -0.0000
  4 H      0.8964     1.0000     0.1036     0.9747     0.9747     0.0000

  Mayer bond orders larger than 0.100000
B(  0-C ,  1-Cl) :   0.9909 B(  0-C ,  2-H ) :   0.9736 B(  0-C ,  3-H ) :   0.9736 
B(  0-C ,  4-H ) :   0.9736 

-------
TIMINGS
-------

Total SCF time: 0 days 0 hours 0 min 2 sec 

Total time                  ....       2.318 sec
Sum of individual times     ....       2.294 sec  ( 99.0%)

SCF preparation             ....       0.066 sec  (  2.9%)
Fock matrix formation       ....       2.200 sec  ( 94.9%)
  Startup                   ....       0.000 sec  (  0.0% of F)
  Split-RI-J                ....       0.103 sec  (  4.7% of F)
  Chain of spheres X        ....       1.487 sec  ( 67.6% of F)
  XC integration            ....       0.602 sec  ( 27.4% of F)
    XC Preparation          ....       0.000 sec  (  0.0% of XC)
    Basis function eval.    ....       0.234 sec  ( 38.9% of XC)
    Density eval.           ....       0.104 sec  ( 17.3% of XC)
    XC-Functional eval.     ....       0.106 sec  ( 17.6% of XC)
    XC-Potential eval.      ....       0.109 sec  ( 18.0% of XC)
Diagonalization             ....       0.000 sec  (  0.0%)
Density matrix formation    ....       0.003 sec  (  0.1%)
Total Energy calculation    ....       0.001 sec  (  0.0%)
Population analysis         ....       0.002 sec  (  0.1%)
Orbital Transformation      ....       0.010 sec  (  0.4%)
Orbital Orthonormalization  ....       0.000 sec  (  0.0%)
DIIS solution               ....       0.009 sec  (  0.4%)
SOSCF solution              ....       0.002 sec  (  0.1%)
Finished LeanSCF after   2.3 sec

Maximum memory used throughout the entire LEANSCF-calculation: 6.4 MB

-------------------------   --------------------
FINAL SINGLE POINT ENERGY      -500.959284494713
-------------------------   --------------------

------------------------------------------------------------------------------
                         ORCA SCF GRADIENT CALCULATION
------------------------------------------------------------------------------

Nuc. rep. gradient        (SHARK) ... done (  0.0 sec)
HCore & Overlap gradient  (SHARK) ... done (  0.0 sec)
Split-RIJ-J gradient      (SHARK) ... done (  0.2 sec)
COSX-gradient                     ... done (  1.6 sec)
XC gradient                       ... done (  0.4 sec)

------------------
CARTESIAN GRADIENT
------------------

   1   C   :   -0.018977341   -0.018977435   -0.018977427
   2   Cl  :    0.026394638    0.026394687    0.026394746
   3   H   :   -0.002001000   -0.003415242   -0.002000992
   4   H   :   -0.003415312   -0.002001054   -0.002001024
   5   H   :   -0.002000985   -0.002000956   -0.003415303

Difference to translation invariance:
           :   -0.0000000000   -0.0000000000   -0.0000000000

Difference to rotation invariance:
           :    0.0000001148   -0.0000001544   -0.0000000848

Norm of the Cartesian gradient     ...    0.0568285212
RMS gradient                       ...    0.0146730611
MAX gradient                       ...    0.0263947456

-------
TIMINGS
-------

Total SCF gradient time     ....        2.125 sec

Densities                   ....       0.000 sec  (  0.0%)
One electron gradient       ....       0.012 sec  (  0.6%)
RI-J Coulomb gradient       ....       0.182 sec  (  8.6%)
COSX gradient               ....       1.560 sec  ( 73.4%)
XC gradient                 ....       0.369 sec  ( 17.4%)

Maximum memory used throughout the entire SCFGRAD-calculation: 7.8 MB
------------------------------------------------------------------------------
                         ORCA GEOMETRY RELAXATION STEP
------------------------------------------------------------------------------

Reading the OPT-File                    .... done
Getting information on internals        .... done
Copying old internal coords+grads       .... done
Making the new internal coordinates     .... (2022 redundants) done
Validating the new internal coordinates .... (2022 redundants) done
Calculating the B-matrix                .... done
Calculating the G,G- and P matrices     .... done
Transforming gradient to internals      .... done
Projecting the internal gradient        .... done
Number of atoms                         ....   5
Number of internal coordinates          ....  10
Current Energy                          ....  -500.959284495 Eh
Current gradient norm                   ....     0.056828521 Eh/bohr
Maximum allowed component of the step   ....  0.300
Current trust radius                    ....  0.300
Evaluating the initial hessian          ....  (Almloef) done
Projecting the Hessian                  .... done
Forming the augmented Hessian           .... done
Diagonalizing the augmented Hessian     .... done
Last element of RFO vector              ....  0.975678402
Lowest eigenvalues of augmented Hessian:
 -0.010556623  0.205881578  0.288855679  0.288855692  0.296677707
Length of the computed step             ....  0.224671241
The final length of the internal step   ....  0.224671241
Converting the step to Cartesian space:
 Initial RMS(Int)=    0.0710472846
Transforming coordinates:
 Iter   0:  RMS(Cart)=    0.0570709258 RMS(Int)=    0.0710301921
done
Storing new coordinates                 .... done

                                .--------------------.
          ----------------------|Geometry convergence|-------------------------
          Item                value                   Tolerance       Converged
          ---------------------------------------------------------------------
          RMS gradient        0.0149046403            0.0001000000      NO
          MAX gradient        0.0457169442            0.0003000000      NO
          RMS step            0.0710472846            0.0020000000      NO
          MAX step            0.2215421630            0.0040000000      NO
          ........................................................
          Max(Bonds)      0.1172      Max(Angles)    0.89
          Max(Dihed)        0.00      Max(Improp)    0.00
          ---------------------------------------------------------------------

The optimization has not yet converged - more geometry cycles are needed


    ---------------------------------------------------------------------------
                         Redundant Internal Coordinates
                            (Angstroem and degrees)

        Definition                    Value    dE/dq     Step     New-Value
    ----------------------------------------------------------------------------
     1. B(Cl  1,C   0)                1.9259  0.045717 -0.1172    1.8086   
     2. B(H   2,C   0)                1.0959  0.000258 -0.0004    1.0956   
     3. B(H   3,C   0)                1.0959  0.000258 -0.0004    1.0956   
     4. B(H   4,C   0)                1.0959  0.000258 -0.0004    1.0956   
     5. A(Cl  1,C   0,H   3)          108.42  0.004771   -0.89    107.53   
     6. A(H   2,C   0,H   3)          110.50 -0.004581    0.86    111.35   
     7. A(Cl  1,C   0,H   4)          108.42  0.004771   -0.89    107.53   
     8. A(H   2,C   0,H   4)          110.50 -0.004581    0.86    111.35   
     9. A(H   3,C   0,H   4)          110.50 -0.004581    0.86    111.35   
    10. A(Cl  1,C   0,H   2)          108.42  0.004771   -0.89    107.53   
    ----------------------------------------------------------------------------

Geometry step timings:
Preparation and reading OPT file:      0.000 s (16.167 %)
Internal coordinates            :      0.000 s ( 2.868 %)
B/P matrices and projection     :      0.000 s (14.863 %)
Hessian update/contruction      :      0.000 s (12.386 %)
Making the step                 :      0.000 s ( 8.996 %)
Converting the step to Cartesian:      0.000 s ( 7.301 %)
Storing new data                :      0.000 s ( 2.347 %)
Checking convergence            :      0.000 s ( 0.130 %)
Final printing                  :      0.000 s (34.420 %)
Total time                      :      0.001 s

Time for energy+gradient        :      5.391 s
Time for complete geometry iter :      5.429 s

         *************************************************************
         *                GEOMETRY OPTIMIZATION CYCLE   2            *
         *************************************************************
---------------------------------
CARTESIAN COORDINATES (ANGSTROEM)
---------------------------------
  C      0.000783    0.000783    0.000783
  Cl     1.044989    1.044989    1.044989
  H     -0.616177    0.663338   -0.616177
  H      0.663339   -0.616177   -0.616177
  H     -0.616177   -0.616177    0.663338

----------------------------
CARTESIAN COORDINATES (A.U.)
----------------------------
  NO LB      ZA    FRAG     MASS         X           Y           Z
   0 C     6.0000    0    12.011    0.001480    0.001480    0.001480
   1 Cl   17.0000    0    35.453    1.974744    1.974743    1.974743
   2 H     1.0000    0     1.008   -1.164406    1.253528   -1.164406
   3 H     1.0000    0     1.008    1.253528   -1.164406   -1.164406
   4 H     1.0000    0     1.008   -1.164406   -1.164406    1.253528

--------------------------------
INTERNAL COORDINATES (ANGSTROEM)
--------------------------------
 C      0   0   0     0.000000000000     0.00000000     0.00000000
 Cl     1   0   0     1.808617959408     0.00000000     0.00000000
 H      1   2   0     1.095563511082   107.52388569     0.00000000
 H      1   2   3     1.095563403007   107.52386197   119.99998856
 H      1   2   3     1.095563465444   107.52389460   239.99999327

---------------------------
INTERNAL COORDINATES (A.U.)
---------------------------
 C      0   0   0     0.000000000000     0.00000000     0.00000000
 Cl     1   0   0     3.417792624173     0.00000000     0.00000000
 H      1   2   0     2.070314998262   107.52388569     0.00000000
 H      1   2   3     2.070314794029   107.52386197   119.99998856
 H      1   2   3     2.070314912018   107.52389460   239.99999327

------------------------------------------------------------------------------
                   ___                                                        
                  /   \      - P O W E R E D   B Y -                         
                 /     \                                                     
                 |  |  |   _    _      __       _____    __    __             
                 |  |  |  | |  | |    /  \     |  _  \  |  |  /  |          
                  \  \/   | |  | |   /    \    | | | |  |  | /  /          
                 / \  \   | |__| |  /  /\  \   | |_| |  |  |/  /          
                |  |  |   |  __  | /  /__\  \  |    /   |      \           
                |  |  |   | |  | | |   __   |  |    \   |  |\   \          
                \     /   | |  | | |  |  |  |  | |\  \  |  | \   \       
                 \___/    |_|  |_| |__|  |__|  |_| \__\ |__|  \__/        
                                                                              
                      - O R C A' S   B I G   F R I E N D -                    
                                      &                                       
                       - I N T E G R A L  F E E D E R -                       
                                                                              
 v1 FN, 2020, v2 2021, v3 2022-2024                                           
------------------------------------------------------------------------------


----------------------
SHARK INTEGRAL PACKAGE
----------------------

Number of atoms                             ...      5
Number of basis functions                   ...     47
Number of shells                            ...     23
Maximum angular momentum                    ...      2
Integral batch strategy                     ... SHARK/LIBINT Hybrid
RI-J (if used) integral strategy            ... SPLIT-RIJ (Revised 2003 algorithm where possible)
Printlevel                                  ...      1
Contraction scheme used                     ... SEGMENTED contraction
Prescreening option                         ... SCHWARTZ
   Thresh                                   ... 2.500e-11
   Tcut                                     ... 2.500e-12
   Tpresel                                  ... 2.500e-12 
Coulomb Range Separation                    ... NOT USED
Exchange Range Separation                   ... NOT USED
Multipole approximations                    ... NOT USED
Finite Nucleus Model                        ... NOT USED
CABS basis                                  ... NOT available
Auxiliary Coulomb fitting basis             ... AVAILABLE
   # of basis functions in Aux-J            ...    195
   # of shells in Aux-J                     ...     75
   Maximum angular momentum in Aux-J        ...      4
Auxiliary J/K fitting basis                 ... NOT available
Auxiliary Correlation fitting basis         ... AVAILABLE
   # of basis functions in Aux-C            ...    152
   # of shells in Aux-C                     ...     54
   Maximum angular momentum in Aux-C        ...      3
Auxiliary 'external' fitting basis          ... NOT available

Checking pre-screening integrals            ... done (  0.0 sec) Dimension = 23
Check shell pair data                       ... done (  0.0 sec)
Shell pair information
Shell pair cut-off parameter TPreSel        ...   2.5e-12
Total number of shell pairs                 ...       276
Shell pairs after pre-screening             ...       275
Total number of primitive shell pairs       ...      1080
Primitive shell pairs kept                  ...       929
          la=0 lb=0:     90 shell pairs
          la=1 lb=0:    104 shell pairs
          la=1 lb=1:     36 shell pairs
          la=2 lb=0:     26 shell pairs
          la=2 lb=1:     16 shell pairs
          la=2 lb=2:      3 shell pairs

Calculating one electron integrals          ... done (  0.0 sec)
Calculating RI/J V-Matrix + Cholesky decomp.... done (  0.0 sec)
Calculating RI/C V-Matrix + Cholesky decomp.... done (  0.0 sec)
Calculating Nuclear repulsion               ... done (  0.0 sec) ENN=     50.754788316576 Eh

Diagonalization of the overlap matrix:
Smallest eigenvalue                        ... 1.151e-02
Time for diagonalization                   ...    0.000 sec
Threshold for overlap eigenvalues          ... 1.000e-07
Number of eigenvalues below threshold      ... 0
Time for construction of square roots      ...    0.000 sec
Total time needed                          ...    0.001 sec

-------------------
DFT GRID GENERATION
-------------------

General Integration Accuracy     IntAcc      ... 4.388
Radial Grid Type                 RadialGrid  ... OptM3 with GC (2021)
Angular Grid (max. ang.)         AngularGrid ... 4 (Lebedev-302)
Angular grid pruning method      GridPruning ... 4 (adaptive)
Weight generation scheme         WeightScheme... mBecke (2022)
Basis function cutoff            BFCut       ... 1.0000e-11
Integration weight cutoff        WCut        ... 1.0000e-14
Partially contracted basis set               ... off
Rotationally invariant grid construction     ... off
Angular grids for H and He will be reduced by one unit

Total number of grid points                  ...    23301
Total number of batches                      ...      368
Average number of points per batch           ...       63
Average number of grid points per atom       ...     4660

--------------------
COSX GRID GENERATION
--------------------

GRIDX 1
-------
General Integration Accuracy     IntAcc      ... 3.816
Radial Grid Type                 RadialGrid  ... OptM3 with GC (2021)
Angular Grid (max. ang.)         AngularGrid ... 1 (Lebedev-50)
Angular grid pruning method      GridPruning ... 4 (adaptive)
Weight generation scheme         WeightScheme... mBecke (2022)
Basis function cutoff            BFCut       ... 1.0000e-11
Integration weight cutoff        WCut        ... 1.0000e-14
Partially contracted basis set               ... on
Rotationally invariant grid construction     ... off
Angular grids for H and He will be reduced by one unit

Total number of grid points                  ...     4011
Total number of batches                      ...       34
Average number of points per batch           ...      117
Average number of grid points per atom       ...      802
UseSFitting                                  ... on

GRIDX 2
-------
General Integration Accuracy     IntAcc      ... 4.020
Radial Grid Type                 RadialGrid  ... OptM3 with GC (2021)
Angular Grid (max. ang.)         AngularGrid ... 2 (Lebedev-110)
Angular grid pruning method      GridPruning ... 4 (adaptive)
Weight generation scheme         WeightScheme... mBecke (2022)
Basis function cutoff            BFCut       ... 1.0000e-11
Integration weight cutoff        WCut        ... 1.0000e-14
Partially contracted basis set               ... on
Rotationally invariant grid construction     ... off
Angular grids for H and He will be reduced by one unit

Total number of grid points                  ...     6193
Total number of batches                      ...       51
Average number of points per batch           ...      121
Average number of grid points per atom       ...     1239
UseSFitting                                  ... on

GRIDX 3
-------
General Integration Accuracy     IntAcc      ... 4.338
Radial Grid Type                 RadialGrid  ... OptM3 with GC (2021)
Angular Grid (max. ang.)         AngularGrid ... 3 (Lebedev-194)
Angular grid pruning method      GridPruning ... 4 (adaptive)
Weight generation scheme         WeightScheme... mBecke (2022)
Basis function cutoff            BFCut       ... 1.0000e-11
Integration weight cutoff        WCut        ... 1.0000e-14
Partially contracted basis set               ... on
Rotationally invariant grid construction     ... off
Angular grids for H and He will be reduced by one unit

Total number of grid points                  ...    14381
Total number of batches                      ...      115
Average number of points per batch           ...      125
Average number of grid points per atom       ...     2876
UseSFitting                                  ... on
Initializing property integral containers    ... done (  0.0 sec)

SHARK setup successfully completed in   0.3 seconds

Maximum memory used throughout the entire STARTUP-calculation: 11.2 MB
------------------------------------------------------------------------------
                          ORCA RELATIVISTIC HAMILTONIAN
------------------------------------------------------------------------------

Relativistic Method            ... DKH
Order of DKH treatment         ...   2
Treatment of potential         ... V(e,N)
Eps parameter for DKH          ...   0.00000000010000
Nucleus model                  ... Point Nucleus
Speed of light used            ... 137.03598950000000


            ************************************************
            *        DOUGLAS-KROLL-HESS HAMILTONIAN        *
            *   Programmed by FN according to literature   *
            *        procedures. Special thanks to         *
            *       B.A. Hess, M. Reiher and A. Wolf       *
            *     University Erlangen-Nuernberg/Bonn       *
            ************************************************

Uncontracting the basis (first version)        ... done
Number of contracted basis functions           ...   47
Number of uncontracted basis functions         ...   81
Initializing the DKH file                      ... done
One center approximation for DKH is active
Finding unique atoms                      ... 3 atom types
 ATOMIC NUMBER   6
          ... doing integrals
          ... Computing the DKH transformation
          ... Transforming V and pVp to p**2 space
          ... First transformation of V and pVp
          ... Second transformation of Veff
          ... Adding kinetic energy
          ... Back transformation of Veff to r-space
          ... Recontracting the H-matrix
          ... Computing the DKH correction to the H-matrix
          ... adding submatrics to 1 actual atoms
 ATOMIC NUMBER  17
          ... doing integrals
          ... Computing the DKH transformation
          ... Transforming V and pVp to p**2 space
          ... First transformation of V and pVp
          ... Second transformation of Veff
          ... Adding kinetic energy
          ... Back transformation of Veff to r-space
          ... Recontracting the H-matrix
          ... Computing the DKH correction to the H-matrix
          ... adding submatrics to 1 actual atoms
 ATOMIC NUMBER   1
          ... doing integrals
          ... Computing the DKH transformation
          ... Transforming V and pVp to p**2 space
          ... First transformation of V and pVp
          ... Second transformation of Veff
          ... Adding kinetic energy
          ... Back transformation of Veff to r-space
          ... Recontracting the H-matrix
          ... Computing the DKH correction to the H-matrix
          ... adding submatrics to 3 actual atoms
Storing DKH matrices                           ... done
Getting S**(-1/2)                              ... done
Reading the original H-matrix                  ... done
Adding DKH correction to the H-matrix          ... done
Storing the new modified H-matrix              ... done

Maximum memory used throughout the entire REL-calculation: 11.2 MB
Occupation numbers will be reassigned to an Aufbau configuration
             **** ENERGY FILE WAS UPDATED (CH3Cl.en.tmp) ****
Finished Guess after   0.1 sec
Maximum memory used throughout the entire GUESS-calculation: 6.0 MB
----------------------------------------D-I-I-S--------------------------------------------
Iteration    Energy (Eh)           Delta-E    RMSDP     MaxDP     DIISErr   Damp  Time(sec)
-------------------------------------------------------------------------------------------
               ***  Starting incremental Fock matrix formation  ***
    1    -500.9635428533240429     0.00e+00  6.87e-04  4.56e-03  1.34e-02  0.700   0.2
    2    -500.9642322289273579    -6.89e-04  5.98e-04  4.25e-03  9.41e-03  0.700   0.2
                               ***Turning on AO-DIIS***
    3    -500.9647245237950983    -4.92e-04  4.61e-04  3.81e-03  6.58e-03  0.700   0.2
    4    -500.9650718359807797    -3.47e-04  1.15e-03  9.50e-03  4.61e-03  0.000   0.2
                              *** Initializing SOSCF ***
---------------------------------------S-O-S-C-F--------------------------------------
Iteration    Energy (Eh)           Delta-E    RMSDP     MaxDP     MaxGrad    Time(sec)
--------------------------------------------------------------------------------------
    5    -500.9659221719558673    -8.50e-04  9.29e-05  1.06e-03  9.46e-04     0.2
               *** Restarting incremental Fock matrix formation ***
    6    -500.9659280206319636    -5.85e-06  4.83e-05  6.26e-04  1.38e-04     0.2
    7    -500.9659279337225826     8.69e-08  2.27e-05  2.65e-04  1.82e-04     0.2
    8    -500.9659282467351886    -3.13e-07  1.77e-06  1.43e-05  4.93e-06     0.2
    9    -500.9659282476120552    -8.77e-10  6.41e-07  8.61e-06  2.75e-06     0.2
                 **** Energy Check signals convergence ****

               *****************************************************
               *                     SUCCESS                       *
               *           SCF CONVERGED AFTER   9 CYCLES          *
               *****************************************************

Recomputing exchange energy using gridx3       ... done (    0.322 sec)
Old exchange energy                            :     -8.446328978 Eh
New exchange energy                            :     -8.446364691 Eh
Exchange energy change after final integration :     -0.000035713 Eh
Total energy after final integration           :   -500.965963960 Eh
             **** ENERGY FILE WAS UPDATED (CH3Cl.en.tmp) ****

----------------
TOTAL SCF ENERGY
----------------

Total Energy       :       -500.96596396031816 Eh          -13631.97692 eV

Components:
Nuclear Repulsion  :         50.75478831657576 Eh            1381.10800 eV
Electronic Energy  :       -551.72071656418780 Eh          -15013.08395 eV
One Electron Energy:       -790.52119861822348 Eh          -21511.17542 eV
Two Electron Energy:        238.80048205403565 Eh            6498.09147 eV

Virial components:
Potential Energy   :       -999.71129794292665 Eh          -27203.52742 eV
Kinetic Energy     :        498.74533398260854 Eh           13571.55050 eV
Virial Ratio       :          2.00445243258714

DFT components:
N(Alpha)           :       12.999999994805 electrons
N(Beta)            :       12.999999994805 electrons
N(Total)           :       25.999999989610 electrons
E(X)               :      -25.190204562058 Eh       
E(C)               :       -0.949091749154 Eh       
E(XC)              :      -26.139296311212 Eh       

---------------
SCF CONVERGENCE
---------------

  Last Energy change         ...    8.7687e-10  Tolerance :   1.0000e-08
  Last MAX-Density change    ...    8.6090e-06  Tolerance :   1.0000e-07
  Last RMS-Density change    ...    6.4133e-07  Tolerance :   5.0000e-09
  Last DIIS Error            ...    9.4636e-04  Tolerance :   5.0000e-07
  Last Orbital Gradient      ...    2.7543e-06  Tolerance :   1.0000e-05
  Last Orbital Rotation      ...    2.6684e-06  Tolerance :   1.0000e-05


Total SCF time: 0 days 0 hours 0 min 2 sec 
Finished LeanSCF after   2.3 sec

Maximum memory used throughout the entire LEANSCF-calculation: 6.6 MB

-------------------------   --------------------
FINAL SINGLE POINT ENERGY      -500.965963960318
-------------------------   --------------------

------------------------------------------------------------------------------
                         ORCA SCF GRADIENT CALCULATION
------------------------------------------------------------------------------

Nuc. rep. gradient        (SHARK) ... done (  0.0 sec)
HCore & Overlap gradient  (SHARK) ... done (  0.0 sec)
Split-RIJ-J gradient      (SHARK) ... done (  0.1 sec)
COSX-gradient                     ... done (  1.6 sec)
XC gradient                       ... done (  0.4 sec)

------------------
CARTESIAN GRADIENT
------------------

   1   C   :   -0.009270468   -0.009270543   -0.009270435
   2   Cl  :    0.005707692    0.005707665    0.005707703
   3   H   :    0.001028453    0.001505816    0.001028408
   4   H   :    0.001505822    0.001028558    0.001028497
   5   H   :    0.001028500    0.001028503    0.001505827

Difference to translation invariance:
           :   -0.0000000000   -0.0000000000   -0.0000000000

Difference to rotation invariance:
           :    0.0000000169   -0.0000000687    0.0000000819

Norm of the Cartesian gradient     ...    0.0192017642
RMS gradient                       ...    0.0049578742
MAX gradient                       ...    0.0092705427

-------
TIMINGS
-------

Total SCF gradient time     ....        2.140 sec

Densities                   ....       0.000 sec  (  0.0%)
One electron gradient       ....       0.010 sec  (  0.5%)
RI-J Coulomb gradient       ....       0.140 sec  (  6.6%)
COSX gradient               ....       1.605 sec  ( 75.0%)
XC gradient                 ....       0.384 sec  ( 17.9%)

Maximum memory used throughout the entire SCFGRAD-calculation: 7.8 MB
------------------------------------------------------------------------------
                         ORCA GEOMETRY RELAXATION STEP
------------------------------------------------------------------------------

Reading the OPT-File                    .... done
Getting information on internals        .... done
Copying old internal coords+grads       .... done
Making the new internal coordinates     .... (2022 redundants) done
Validating the new internal coordinates .... (2022 redundants) done
Calculating the B-matrix                .... done
Calculating the G,G- and P matrices     .... done
Transforming gradient to internals      .... done
Projecting the internal gradient        .... done
Number of atoms                         ....   5
Number of internal coordinates          ....  10
Current Energy                          ....  -500.965963960 Eh
Current gradient norm                   ....     0.019201764 Eh/bohr
Maximum allowed component of the step   ....  0.300
Current trust radius                    ....  0.300
Updating the Hessian (BFGS)             .... done
Forming the augmented Hessian           .... done
Diagonalizing the augmented Hessian     .... done
Last element of RFO vector              ....  0.997622653
Lowest eigenvalues of augmented Hessian:
 -0.000767972  0.155349239  0.288855679  0.288855692  0.302976829
Length of the computed step             ....  0.069077516
The final length of the internal step   ....  0.069077516
Converting the step to Cartesian space:
 Initial RMS(Int)=    0.0218442287
Transforming coordinates:
 Iter   0:  RMS(Cart)=    0.0128065536 RMS(Int)=    0.0218554431
done
Storing new coordinates                 .... done
The predicted energy change is          ....    -0.000385818
Previously predicted energy change      ....    -0.005544746
Actually observed energy change         ....    -0.006679466
Ratio of predicted to observed change   ....     1.204647732
New trust radius                        ....     0.450000000

                                .--------------------.
          ----------------------|Geometry convergence|-------------------------
          Item                value                   Tolerance       Converged
          ---------------------------------------------------------------------
          Energy change      -0.0066794656            0.0000050000      NO
          RMS gradient        0.0035758842            0.0001000000      NO
          MAX gradient        0.0098860029            0.0003000000      NO
          RMS step            0.0218442287            0.0020000000      NO
          MAX step            0.0654963792            0.0040000000      NO
          ........................................................
          Max(Bonds)      0.0347      Max(Angles)    0.52
          Max(Dihed)        0.00      Max(Improp)    0.00
          ---------------------------------------------------------------------

[...]
  0-1.0A  -> 49-3.0A   12.319235   99361.3   100.6   -0.00000   0.00108   0.00036   0.00144
  0-1.0A  -> 50-3.0A   12.323737   99397.6   100.6   -0.00000   0.00062   0.00245   0.00307
  0-1.0A  -> 51-3.0A   12.323738   99397.7   100.6    0.00000   0.00318   0.00213   0.00105
  0-1.0A  -> 52-3.0A   12.328276   99434.3   100.6    0.00000   0.00045   0.00045   0.00045
  0-1.0A  -> 53-3.0A   12.328718   99437.8   100.6   -0.00000   0.00000   0.00000   0.00000
  0-1.0A  -> 54-3.0A   12.943397  104395.5    95.8    0.00000   0.00140   0.00140   0.00140
  0-1.0A  -> 55-3.0A   12.943421  104395.7    95.8   -0.00000   0.00071   0.00173   0.00102
  0-1.0A  -> 56-3.0A   12.943421  104395.7    95.8    0.00000   0.00159   0.00018   0.00141
  0-1.0A  -> 57-2.8A   13.179014  106295.9    94.1    0.00000   0.05948   0.15488   0.09540
  0-1.0A  -> 58-2.8A   13.179014  106295.9    94.1   -0.00000   0.14454   0.02078   0.12376
  0-1.0A  -> 59-3.0A   13.179459  106299.5    94.1   -0.00000   0.00001   0.00001   0.00002
  0-1.0A  -> 60-3.0A   13.179529  106300.1    94.1   -0.00000   0.00204   0.00449   0.00245
  0-1.0A  -> 61-3.0A   13.179529  106300.1    94.1    0.00000   0.00403   0.00024   0.00379
  0-1.0A  -> 62-3.0A   13.179884  106302.9    94.1   -0.00000   0.00260   0.00259   0.00260
  0-1.0A  -> 63-1.2A   13.184787  106342.5    94.0    0.00018   0.46366   0.29983   0.16383
  0-1.0A  -> 64-1.2A   13.184789  106342.5    94.0   -0.00018   0.07852   0.36229   0.44081
  0-1.0A  -> 65-1.0A   13.378455  107904.5    92.7   -0.00139   0.00001   0.00000   0.00001
  0-1.0A  -> 66-3.0A   13.520986  109054.1    91.7   -0.00000   0.00000   0.00000   0.00000
  0-1.0A  -> 67-3.0A   13.520992  109054.2    91.7    0.00000   0.00090   0.00090   0.00090
  0-1.0A  -> 68-3.0A   13.526006  109094.6    91.7   -0.00000   0.00239   0.00619   0.00380
  0-1.0A  -> 69-3.0A   13.526006  109094.6    91.7    0.00000   0.00577   0.00082   0.00496
  0-1.0A  -> 70-2.7A   13.527047  109103.0    91.7    0.00007   0.03482   0.00241   0.03241
  0-1.0A  -> 71-2.7A   13.527047  109103.0    91.7   -0.00007   0.01732   0.03881   0.02150
  0-1.0A  -> 72-1.4A   13.549124  109281.1    91.5    0.00023   0.06505   0.01146   0.05358
  0-1.0A  -> 73-1.4A   13.549125  109281.1    91.5   -0.00023   0.02432   0.06850   0.04418
  0-1.0A  -> 74-3.0A   13.907277  112169.8    89.2    0.00000   0.00000   0.00000   0.00000
  0-1.0A  -> 75-3.0A   13.907375  112170.6    89.1    0.00000   0.00023   0.00049   0.00072
  0-1.0A  -> 76-3.0A   13.907375  112170.6    89.1   -0.00000   0.00070   0.00054   0.00015
  0-1.0A  -> 77-1.0A   14.080979  113570.8    88.1    0.00002   0.17758   0.17758   0.17758
  0-1.0A  -> 78-1.0A   14.565116  117475.6    85.1   -0.00075   0.30260   0.42837   0.12577
  0-1.0A  -> 79-1.0A   14.565117  117475.6    85.1    0.00075   0.31993   0.10210   0.42203
  0-1.0A  -> 80-1.0A   15.631886  126079.7    79.3    0.00004   0.00000   0.00000   0.00000

----------------------------------------------------------------------------------------------
      SOC CORRECTED CD SPECTRUM VIA TRANSITION VELOCITY DIPOLE MOMENTS    
----------------------------------------------------------------------------------------------
      Transition         Energy     Energy  Wavelength    R       |MX|      |MY|      |MZ|  
                          (eV)      (cm-1)    (nm)    (1e40*cgs)  (au)      (au)      (au)  
----------------------------------------------------------------------------------------------
  0-1.0A  ->  1-3.0A    6.900626   55657.3   179.7    0.00000   0.00002   0.00002   0.00000
  0-1.0A  ->  2-3.0A    6.900626   55657.3   179.7   -0.00000   0.00001   0.00002   0.00002
  0-1.0A  ->  3-3.0A    6.930076   55894.8   178.9    0.00000   0.00393   0.00141   0.00252
  0-1.0A  ->  4-3.0A    6.930076   55894.8   178.9   -0.00000   0.00064   0.00372   0.00308
  0-1.0A  ->  5-3.0A    6.961480   56148.1   178.1   -0.00000   0.00162   0.00162   0.00162
  0-1.0A  ->  6-3.0A    6.961985   56152.2   178.1   -0.00000   0.00000   0.00000   0.00000
  0-1.0A  ->  7-1.0A    7.858907   63386.4   157.8    0.00001   0.02681   0.12059   0.09378
  0-1.0A  ->  8-1.0A    7.858908   63386.4   157.8   -0.00001   0.12377   0.03867   0.08511
  0-1.0A  ->  9-3.0A    8.896078   71751.7   139.4    0.00000   0.00003   0.00017   0.00014
  0-1.0A  -> 10-3.0A    8.896078   71751.7   139.4   -0.00000   0.00018   0.00007   0.00012
  0-1.0A  -> 11-3.0A    8.919921   71944.0   139.0   -0.00000   0.02939   0.00571   0.02368
  0-1.0A  -> 12-3.0A    8.919921   71944.0   139.0    0.00000   0.01037   0.03063   0.02026
  0-1.0A  -> 13-3.0A    8.949781   72184.9   138.5   -0.00000   0.00026   0.00026   0.00026
  0-1.0A  -> 14-3.0A    8.949850   72185.4   138.5    0.00000   0.00000   0.00000   0.00000
  0-1.0A  -> 15-1.0A    9.181897   74057.0   135.0    0.00004   0.09643   0.29900   0.20256
  0-1.0A  -> 16-1.0A    9.181898   74057.0   135.0   -0.00003   0.28958   0.06127   0.22830
  0-1.0A  -> 17-3.0A    9.584208   77301.9   129.4   -0.00000   0.00058   0.00058   0.00058
  0-1.0A  -> 18-3.0A    9.584375   77303.2   129.4    0.00000   0.00149   0.00404   0.00255
  0-1.0A  -> 19-3.0A    9.584375   77303.2   129.4   -0.00000   0.00381   0.00061   0.00319
  0-1.0A  -> 20-3.0A    9.800375   79045.4   126.5   -0.00000   0.00038   0.00154   0.00116
  0-1.0A  -> 21-3.0A    9.800375   79045.4   126.5    0.00000   0.00156   0.00045   0.00111
  0-1.0A  -> 22-3.0A    9.800614   79047.3   126.5   -0.00000   0.00675   0.00675   0.00675
  0-1.0A  -> 23-3.0A   10.003418   80683.0   123.9   -0.00000   0.00000   0.00000   0.00000
  0-1.0A  -> 24-3.0A   10.003423   80683.1   123.9    0.00000   0.00024   0.00024   0.00024
  0-1.0A  -> 25-3.0A   10.025937   80864.6   123.7   -0.00000   0.00524   0.01971   0.01447
  0-1.0A  -> 26-3.0A   10.025937   80864.6   123.7    0.00000   0.01974   0.00533   0.01441
  0-1.0A  -> 27-3.0A   10.054067   81091.5   123.3   -0.00000   0.00019   0.00035   0.00016
  0-1.0A  -> 28-3.0A   10.054067   81091.5   123.3    0.00000   0.00030   0.00002   0.00031
  0-1.0A  -> 29-3.0A   10.203049   82293.1   121.5    0.00000   0.00000   0.00000   0.00000
  0-1.0A  -> 30-3.0A   10.207839   82331.8   121.5    0.00000   0.00002   0.00000   0.00001
  0-1.0A  -> 31-3.0A   10.207839   82331.8   121.5    0.00000   0.00001   0.00002   0.00001
  0-1.0A  -> 32-1.0A   10.244441   82627.0   121.0   -0.00001   0.11841   0.11841   0.11841
  0-1.0A  -> 33-1.0A   10.321046   83244.9   120.1    0.00002   0.03986   0.22125   0.18139
  0-1.0A  -> 34-1.0A   10.321046   83244.9   120.1   -0.00002   0.23246   0.08171   0.15075
  0-1.0A  -> 35-1.0A   10.490378   84610.6   118.2    0.00000   0.00000   0.00000   0.00000
  0-1.0A  -> 36-3.0A   11.141830   89864.9   111.3    0.00000   0.00002   0.00024   0.00026
  0-1.0A  -> 37-3.0A   11.141830   89864.9   111.3   -0.00000   0.00029   0.00017   0.00012
  0-1.0A  -> 38-3.0A   11.145457   89894.2   111.2    0.00000   0.00014   0.00102   0.00116
  0-1.0A  -> 39-3.0A   11.145459   89894.2   111.2   -0.00000   0.00125   0.00075   0.00050
  0-1.0A  -> 40-3.0A   11.149009   89922.8   111.2   -0.00000   0.00000   0.00000   0.00000
  0-1.0A  -> 41-3.0A   11.149109   89923.6   111.2   -0.00000   0.00035   0.00035   0.00035
  0-1.0A  -> 42-3.0A   11.933285   96248.4   103.9    0.00000   0.00065   0.00065   0.00065
  0-1.0A  -> 43-3.0A   11.933418   96249.5   103.9   -0.00000   0.00420   0.00113   0.00306
  0-1.0A  -> 44-3.0A   11.933418   96249.5   103.9    0.00000   0.00112   0.00419   0.00308
  0-1.0A  -> 45-1.0A   12.044471   97145.2   102.9   -0.00021   0.18183   0.10921   0.07262
  0-1.0A  -> 46-1.0A   12.044473   97145.2   102.9    0.00020   0.02113   0.14690   0.16803
  0-1.0A  -> 47-1.0A   12.168364   98144.5   101.9   -0.00029   0.00000   0.00000   0.00000
  0-1.0A  -> 48-3.0A   12.319235   99361.3   100.6    0.00000   0.00104   0.00145   0.00041
  0-1.0A  -> 49-3.0A   12.319235   99361.3   100.6   -0.00000   0.00108   0.00036   0.00144
  0-1.0A  -> 50-3.0A   12.323737   99397.6   100.6   -0.00000   0.00062   0.00245   0.00307
  0-1.0A  -> 51-3.0A   12.323738   99397.7   100.6    0.00000   0.00318   0.00213   0.00105
  0-1.0A  -> 52-3.0A   12.328276   99434.3   100.6    0.00000   0.00045   0.00045   0.00045
  0-1.0A  -> 53-3.0A   12.328718   99437.8   100.6   -0.00000   0.00000   0.00000   0.00000
  0-1.0A  -> 54-3.0A   12.943397  104395.5    95.8    0.00000   0.00140   0.00140   0.00140
  0-1.0A  -> 55-3.0A   12.943421  104395.7    95.8   -0.00000   0.00071   0.00173   0.00102
  0-1.0A  -> 56-3.0A   12.943421  104395.7    95.8    0.00000   0.00159   0.00018   0.00141
  0-1.0A  -> 57-2.8A   13.179014  106295.9    94.1    0.00000   0.05948   0.15488   0.09540
  0-1.0A  -> 58-2.8A   13.179014  106295.9    94.1   -0.00000   0.14454   0.02078   0.12376
  0-1.0A  -> 59-3.0A   13.179459  106299.5    94.1   -0.00000   0.00001   0.00001   0.00002
  0-1.0A  -> 60-3.0A   13.179529  106300.1    94.1   -0.00000   0.00204   0.00449   0.00245
  0-1.0A  -> 61-3.0A   13.179529  106300.1    94.1    0.00000   0.00403   0.00024   0.00379
  0-1.0A  -> 62-3.0A   13.179884  106302.9    94.1   -0.00000   0.00260   0.00259   0.00260
  0-1.0A  -> 63-1.2A   13.184787  106342.5    94.0    0.00018   0.46366   0.29983   0.16383
  0-1.0A  -> 64-1.2A   13.184789  106342.5    94.0   -0.00018   0.07852   0.36229   0.44081
  0-1.0A  -> 65-1.0A   13.378455  107904.5    92.7   -0.00107   0.00001   0.00000   0.00001
  0-1.0A  -> 66-3.0A   13.520986  109054.1    91.7   -0.00000   0.00000   0.00000   0.00000
  0-1.0A  -> 67-3.0A   13.520992  109054.2    91.7    0.00000   0.00090   0.00090   0.00090
  0-1.0A  -> 68-3.0A   13.526006  109094.6    91.7   -0.00000   0.00239   0.00619   0.00380
  0-1.0A  -> 69-3.0A   13.526006  109094.6    91.7    0.00000   0.00577   0.00082   0.00496
  0-1.0A  -> 70-2.7A   13.527047  109103.0    91.7    0.00006   0.03482   0.00241   0.03241
  0-1.0A  -> 71-2.7A   13.527047  109103.0    91.7   -0.00006   0.01732   0.03881   0.02150
  0-1.0A  -> 72-1.4A   13.549124  109281.1    91.5    0.00018   0.06505   0.01146   0.05358
  0-1.0A  -> 73-1.4A   13.549125  109281.1    91.5   -0.00018   0.02432   0.06850   0.04418
  0-1.0A  -> 74-3.0A   13.907277  112169.8    89.2    0.00000   0.00000   0.00000   0.00000
  0-1.0A  -> 75-3.0A   13.907375  112170.6    89.1    0.00000   0.00023   0.00049   0.00072
  0-1.0A  -> 76-3.0A   13.907375  112170.6    89.1   -0.00000   0.00070   0.00054   0.00015
  0-1.0A  -> 77-1.0A   14.080979  113570.8    88.1    0.00002   0.17758   0.17758   0.17758
  0-1.0A  -> 78-1.0A   14.565116  117475.6    85.1   -0.00060   0.30260   0.42837   0.12577
  0-1.0A  -> 79-1.0A   14.565117  117475.6    85.1    0.00060   0.31993   0.10210   0.42203
  0-1.0A  -> 80-1.0A   15.631886  126079.7    79.3    0.00005   0.00000   0.00000   0.00000

Total run time:        2.985 sec

           *** ORCA-CIS/TD-DFT FINISHED WITHOUT ERROR ***

---------------------------
SOC CIS/TD-DFT TOTAL ENERGY
---------------------------

    E(SCF)        =   -500.966464932 Eh
    E(SOC CIS)    =      0.253593361 Eh (SOC Root  1)
    ----------------------------- ---------
    E(tot)        =   -500.712871571 Eh


Maximum memory used throughout the entire CIS-calculation: 23.9 MB
=> NOW LEAVING ORCA_CIS

-------------------------   --------------------
FINAL SINGLE POINT ENERGY      -500.712871570573
-------------------------   --------------------


------------------------------------------------------------------------------
                              ORCA PROPERTY CALCULATIONS
------------------------------------------------------------------------------

GBWName                                 ... CH3Cl_job2.gbw
Number of atoms                         ...      5
Number of basis functions               ...     47
Max core memory                         ...   1024 MB

Electric properties:
Dipole moment                           ... YES
Quadrupole moment                       ...  NO
Static polarizability (Dipole/Dipole)   ...  NO
Static polarizability (Dipole/Quad.)    ...  NO
Static polarizability (Quad./Quad.)     ...  NO
Static polarizability (Velocity)        ...  NO

Atomic electric properties:
Dipole moment                           ...  NO
Quadrupole moment                       ...  NO
Static polarizability                   ...  NO

Choice of electric origin               ... Center of mass
Position of electric origin             ...     1.364428     1.364427     1.364428

General magnetic properties:
Magnetizability                         ...  NO

EPR properties:
g-Tensor (aka g-matrix)                 ...  NO
Zero-Field splitting spin-orbit         ...  NO
Zero-field splitting spin-spin          ...  NO
Hyperfine couplings                     ...  NO (   0 nuclei)
Quadrupole couplings                    ...  NO (   0 nuclei)
Contact density                         ...  NO (   0 nuclei)

NMR properties:
Chemical shifts                         ...  NO (   0 nuclei)
Spin-rotation constants                 ...  NO (   0 nuclei)
Spin-spin couplings                     ...  NO (   0 nuclei,    0 pairs)

Choice of magnetic origin               ... GIAO
Position of magnetic origin             ...     0.000000     0.000000     0.000000

Properties with geometric perturbations:
SCF Hessian                             ...  NO
IR spectrum                             ...  NO
VCD spectrum                            ...  NO
X-ray spectroscopy properties:
SCF XES/XAS/RIXS spectra                ...  NO


-------------
DIPOLE MOMENT
-------------

Method             : SCF
Type of density    : Electron Density
Multiplicity       :   1
Irrep              :   0
Energy             :  -500.9664649316961231 Eh
Relativity type    : 
Basis              : AO
                                X                 Y                 Z
Electronic contribution:      2.578586802       2.578585885       2.578586961
Nuclear contribution   :     -3.000392680      -3.000391680      -3.000392828
                        -----------------------------------------
Total Dipole Moment    :     -0.421805878      -0.421805795      -0.421805868
                        -----------------------------------------
Magnitude (a.u.)       :      0.730589158
Magnitude (Debye)      :      1.857010060



--------------------
Rotational spectrum 
--------------------
 
Rotational constants in cm-1:             5.185519             0.443940             0.443940 
Rotational constants in MHz :        155457.939202         13308.977711         13308.977490 

Dipole components along the rotational axes: 
x,y,z [a.u.] :    -0.730589    -0.000000     0.000000 
x,y,z [Debye]:    -1.857010    -0.000000     0.000000 

 

Dipole moment calculation done in   0.0 sec 

Maximum memory used throughout the entire PROP-calculation: 4.4 MB

--------------------------------
SUGGESTED CITATIONS FOR THIS RUN
--------------------------------

Below you find a list of papers that are relevant to this ORCA run
We neither can nor want to force you to cite these papers, but we appreciate if you do
You receive ORCA, which is the product of decades of hard work by many enthusiastic individuals, for free
The only thing we kindly ask in return is that you cite our papers,
We deeply appreciate it, if you show your appreciation for ORCA by not just citing the generic ORCA reference.

Please note that relegating all ORCA citations to the supporting information does *not* help us.
SI sections are not indexed - citations you put there will not count into any citation statistics
But we need these citations in order to attract the funding resources that allow us to do what we are doing

Therefore, if you are a happy ORCA user, please consider citing a few of the papers listed below in the main body of your paper

In addition to the list printed below, the program has created the file CH3Cl_job2.bibtex that contains the list in bibtex format
You can import this file easily into all common literature databanks and citation aid programs


List of essential papers. We consider these as the minimum necessary citations

  1. Neese,F.
     Software update: the ORCA program system, version 5.0
     WIRES Comput. Molec. Sci., 2022 12(1)e1606
     doi.org/10.1002/wcms.1606

List of papers to cite with high priority. The work reported in these papers was absolutely
necessary for this run to complete.
Our perspective: the developers of density functionals and basis sets usually get cited in chemistry papers
Good! But without the algorithms to do something with them, the functionals or basis sets would not do anything.
Hence, in our opinion, the algorithm design and method developments papers are equally worthy of getting cited

  1. Neese,F.; Olbrich,G.
     Efficient use of the resolution of the identity approximation in time-dependent density functional calculations with hybrid density functionals
     Chem. Phys. Lett., 2002 362 170-178
     doi.org/10.1016/s0009-2614(02)01053-9
  2. Neese,F.
     An improvement of the resolution of the identity approximation for the formation of the Coulomb matrix
     J. Comp. Chem., 2003 24(14)1740-1747
     doi.org/10.1002/jcc.10318
  3. Neese,F.; Wennmohs,F.; Hansen,A.; Becker,U.
     Efficient, approximate and parallel Hartree-Fock and hybrid DFT calculations. A 'chain-of-spheres' algorithm for the Hartree-Fock exchange
     Chem. Phys., 2009 356(1-3)98-109
     doi.org/10.1016/j.chemphys.2008.10.036
  4. Helmich-Paris,B.; de Souza,B.; Neese,F.; Izsák,R.
     An improved chain of spheres for exchange algorithm
     J. Chem. Phys., 2021 155 104109
     doi.org/doi: 10.1063/5.0058766.
  5. Neese,F.
     The SHARK Integral Generation and Digestion System
     J. Comp. Chem., 2022  1-16
     doi.org/10.1002/jcc.26942

List of suggested additional citations. These are papers that are important in the 'surrounding' of 
of this run, or papers that preceded the highly important papers. If you like your results we are grateful for a citation.

  1. Izsak,R.; Neese,F.
     An overlap fitted chain of spheres exchange method
     J. Chem. Phys., 2011 135 144105
     doi.org/10.1063/1.3646921
  2. Izsak,R.; Hansen,A.; Neese,F.
     The resolution of identity and chain of spheres approximations for the LPNO-CCSD singles Fock term
     Molec. Phys., 2012 110 2413-2417
     doi.org/10.1080/00268976.2012.687466
  3. Neese,F.
     The ORCA program system
     WIRES Comput. Molec. Sci., 2012 2(1)73-78
     doi.org/10.1002/wcms.81
  4. Izsak,R.; Neese,F.; Klopper,W.
     Robust fitting techniques in the chain of spheres approximation to the Fock exchange: The role of the complementary space
     J. Chem. Phys., 2013 139 
     doi.org/10.1063/1.4819264
  5. Neese,F.
     Software update: the ORCA program system, version 4.0
     WIRES Comput. Molec. Sci., 2018 8(1)1-6
     doi.org/10.1002/wcms.1327
  6. Neese,F.; Wennmohs,F.; Becker,U.; Riplinger,C.
     The ORCA quantum chemistry program package
     J. Chem. Phys., 2020 152 Art. No. L224108
     doi.org/10.1063/5.0004608

List of optional additional citations

  1. Neese,F.
     Approximate second-order SCF convergence for spin unrestricted wavefunctions
     Chem. Phys. Lett., 2000 325(1-3)93-98
     doi.org/10.1016/s0009-2614(00)00662-x

Timings for individual modules:

Sum of individual times          ...        4.990 sec (=   0.083 min)
Startup calculation              ...        0.259 sec (=   0.004 min)   5.2 %
Relativistic integrals           ...        0.408 sec (=   0.007 min)   8.2 %
SCF iterations                   ...        0.975 sec (=   0.016 min)  19.5 %
Property integrals               ...        0.263 sec (=   0.004 min)   5.3 %
Property calculations            ...        0.075 sec (=   0.001 min)   1.5 %
CIS module                       ...        3.011 sec (=   0.050 min)  60.3 %



                             ****ORCA TERMINATED NORMALLY****
TOTAL RUN TIME: 0 days 0 hours 0 minutes 31 seconds 928 msec
