[Molden Format]
[Title]
 Molden file created by orca_2mkl for BaseName=CH3Cl

[Atoms] AU
C    1   6          0.0277603412         0.0277605979         0.0277601745 
Cl   2  17          1.9646867544         1.9646860804         1.9646869034 
H    3   1         -1.1637345650         1.2359603269        -1.1637343835 
H    4   1          1.2359607378        -1.1637337877        -1.1637336570 
H    5   1         -1.1637335789        -1.1637335281         1.2359606521 
[GTO]
  1 0
s   5 1.0 
     1238.4016938000         0.8208956682
      186.2900499200         1.4766449896
       42.2511763460         2.1526124058
       11.6765579320         2.1081722461
        3.5930506482         0.8290999933
s   1 1.0 
        0.4024514736         0.3601183351
s   1 1.0 
        0.1309018267         0.1551027052
p   3 1.0 
        9.4680970621         1.3467645142
        2.0103545142         1.0678070931
        0.5477100471         0.5108735714
p   1 1.0 
        0.1526861379         0.1360471976
d   1 1.0 
        0.8000000000         1.9292013661

  2 0
s   5 1.0 
    10449.8275660000         3.9973241313
     1571.7365221000         7.2277480961
      357.1206552300        10.7494942607
      100.2518593500        10.7118498358
       30.8127275540         4.0765111022
s   3 1.0 
       51.9237894340        -1.2786987774
        5.7045760975         1.4832318965
        2.3508376809         0.6815120566
s   1 1.0 
        0.4460512467         0.3889991572
s   1 1.0 
        0.1684885619         0.1874294841
p   5 1.0 
      307.6679056900       -16.3095226390
       72.1020155150       -19.2520828188
       22.5326802620       -16.9965641132
        7.8991765444        -9.1249716393
        2.8767268321        -2.0801728153
p   1 1.0 
        0.7745936396         1.0358157160
p   1 1.0 
        0.2103769970         0.2030897020
d   1 1.0 
        0.6500000000         1.3414313681

  3 0
s   3 1.0 
       13.0107010000         0.1634903809
        1.9622572000         0.2773515510
        0.4445379600         0.3157501452
s   1 1.0 
        0.1219496200         0.1470772262
p   1 1.0 
        0.8000000000         1.0784563492

  4 0
s   3 1.0 
       13.0107010000         0.1634903809
        1.9622572000         0.2773515510
        0.4445379600         0.3157501452
s   1 1.0 
        0.1219496200         0.1470772262
p   1 1.0 
        0.8000000000         1.0784563492

  5 0
s   3 1.0 
       13.0107010000         0.1634903809
        1.9622572000         0.2773515510
        0.4445379600         0.3157501452
s   1 1.0 
        0.1219496200         0.1470772262
p   1 1.0 
        0.8000000000         1.0784563492

[5D]
[7F]
[9G]
[MO]
 Sym=     1a
 Ene= -1.02048395069525E+02
 Spin= Alpha
 Occup= 2.000000
  1      -0.000021834086
  2       0.000148574352
  3      -0.001560028224
  4       0.000015018612
  5       0.000015018522
  6       0.000015018627
  7      -0.000495908761
  8      -0.000495909115
  9      -0.000495908780
 10       0.000000000116
 11       0.000102652350
 12       0.000102652448
 13       0.000000000114
 14       0.000102652469
 15       0.994801634528
 16       0.019411546416
 17      -0.008294659052
 18       0.005464981744
 19       0.000069799924
 20       0.000069799881
 21       0.000069799939
 22       0.000206294868
 23       0.000206294764
 24       0.000206294905
 25      -0.000651392375
 26      -0.000651392001
 27      -0.000651392483
 28       0.000000000054
 29       0.000075999866
 30       0.000075999811
 31       0.000000000064
 32       0.000075999797
 33       0.000162535187
 34      -0.000052811398
 35      -0.000007245073
 36       0.000006153769
 37      -0.000007245065
 38       0.000162535049
 39      -0.000052812200
 40       0.000006153599
 41      -0.000007245391
 42      -0.000007245414
 43       0.000162535035
 44      -0.000052812322
 45      -0.000007245488
 46      -0.000007245456
 47       0.000006153559
 Sym=     1a
 Ene= -1.02921250687588E+01
 Spin= Alpha
 Occup= 2.000000
  1      -0.988716472900
  2      -0.046903660809
  3       0.037155552520
  4       0.000536523732
  5       0.000536525427
  6       0.000536522974
  7      -0.000309816262
  8      -0.000309820640
  9      -0.000309814050
 10      -0.000000000207
 11       0.000663894028
 12       0.000663894623
 13      -0.000000000828
 14       0.000663895149
 15       0.000047113093
 16      -0.000348933531
 17       0.000901517320
 18      -0.004672294146
 19      -0.000091071541
 20      -0.000091071551
 21      -0.000091069310
 22      -0.000226323703
 23      -0.000226323254
 24      -0.000226323508
 25       0.000684036143
 26       0.000684034819
 27       0.000684036180
 28       0.000000000377
 29       0.000871292535
 30       0.000871292340
 31       0.000000000368
 32       0.000871292148
 33       0.002826362522
 34      -0.007959668938
 35       0.001178799231
 36      -0.001241379448
 37       0.001178798931
 38       0.002826362772
 39      -0.007959673068
 40      -0.001241379642
 41       0.001178798846
 42       0.001178797996
 43       0.002826362399
 44      -0.007959674216
 45       0.001178797854
 46       0.001178798481
 47      -0.001241379738
 Sym=     1a
 Ene= -9.58898016077648E+00
 Spin= Alpha
 Occup= 2.000000
  1       0.000067348148
  2      -0.000109223349
  3       0.001260392004
  4      -0.000204409226
  5      -0.000204409353
  6      -0.000204410341
  7       0.000614987914
  8       0.000614989809
  9       0.000614987652
 10      -0.000000000330
 11      -0.000402062416
 12      -0.000402062556
 13      -0.000000000448
 14      -0.000402062742
 15      -0.310109144372
 16       1.025166341497
 17       0.039540854522
 18      -0.013618390914
 19       0.003508589097
 20       0.003508586442
 21       0.003508589809
 22      -0.000673381015
 23      -0.000673380651
 24      -0.000673381179
 25       0.000827747712
 26       0.000827747114
 27       0.000827747939
 28       0.000000000091
 29       0.000217263050
 30       0.000217262967
 31       0.000000000031
 32       0.000217262888
 33      -0.000206463367
 34       0.000437102389
 35       0.000076194456
 36       0.000064279494
 37       0.000076194449
 38      -0.000206462022
 39       0.000437104656
 40       0.000064279784
 41       0.000076194838
 42       0.000076195332
 43      -0.000206461999
 44       0.000437105058
 45       0.000076195238
 46       0.000076194998
 47       0.000064279854
 Sym=     1a
 Ene= -7.27153636673683E+00
 Spin= Alpha
 Occup= 2.000000
  1      -0.000068939313
  2       0.000285668993
  3      -0.005750232583
  4       0.000100539880
  5       0.000100541065
  6       0.000100542720
  7      -0.001285391780
  8      -0.001285391091
  9      -0.001285391521
 10       0.000000000137
 11       0.000518689617
 12       0.000518689839
 13       0.000000000690
 14       0.000518689850
 15      -0.002028739414
 16       0.007214133008
 17      -0.002459530448
 18       0.004908859326
 19      -0.566778752604
 20      -0.566778312671
 21      -0.566778883562
 22       0.028168290984
 23       0.028168269192
 24       0.028168297597
 25      -0.005390449389
 26      -0.005390445761
 27      -0.005390450785
 28      -0.000000000070
 29      -0.000136447916
 30      -0.000136447869
 31      -0.000000000065
 32      -0.000136447786
 33       0.000501171858
 34       0.000401425365
 35       0.000050785246
 36      -0.000039727109
 37       0.000050786070
 38       0.000501168171
 39       0.000401425394
 40      -0.000039727524
 41       0.000050784725
 42       0.000050784474
 43       0.000501168474
 44       0.000401425282
 45       0.000050784392
 46       0.000050784496
 47      -0.000039727728
 Sym=     1a
 Ene= -7.26107390931269E+00
 Spin= Alpha
 Occup= 2.000000
  1      -0.000000000701
  2       0.000000000569
  3      -0.000000002619
  4      -0.000060152236
  5       0.000095391838
  6      -0.000035240187
  7       0.000656270849
  8      -0.001040746997
  9       0.000384476685
 10      -0.000016647067
 11      -0.000009375970
 12       0.000005912269
 13      -0.000042422454
 14       0.000003463785
 15       0.000000000050
 16      -0.000000000213
 17       0.000000000337
 18      -0.000000000302
 19      -0.500098294395
 20       0.793081748087
 21      -0.292982770383
 22       0.023873339721
 23      -0.037859577270
 24       0.013986204817
 25      -0.003305968665
 26       0.005242776349
 27      -0.001936802941
 28      -0.000074231381
 29      -0.000117786954
 30       0.000074273859
 31      -0.000189166202
 32       0.000043513445
 33       0.000335118385
 34       0.000060665360
 35      -0.000139324002
 36      -0.000072644493
 37      -0.000105842894
 38      -0.000211317947
 39      -0.000038252565
 40       0.000045808123
 41       0.000165081914
 42      -0.000010484805
 43      -0.000123800657
 44      -0.000022409976
 45      -0.000059238560
 46       0.000149809375
 47       0.000026836692
 Sym=     1a
 Ene= -7.26107390848873E+00
 Spin= Alpha
 Occup= 2.000000
  1      -0.000000001927
  2       0.000000000974
  3      -0.000000001041
  4       0.000075420069
  5       0.000014382451
  6      -0.000089803762
  7      -0.000822852010
  8      -0.000156920120
  9       0.000979772117
 10      -0.000042422542
 11      -0.000001413676
 12      -0.000007412808
 13       0.000016647280
 14       0.000008826520
 15       0.000000000027
 16      -0.000000000087
 17      -0.000000000002
 18       0.000000000057
 19       0.627039730603
 20       0.119578292062
 21      -0.746617757200
 22      -0.029933180322
 23      -0.005708344084
 24       0.035641511961
 25       0.004145132396
 26       0.000790488774
 27      -0.004935619494
 28      -0.000189166400
 29      -0.000017759441
 30      -0.000093126690
 31       0.000074231506
 32       0.000110886351
 33       0.000050528101
 34       0.000009146950
 35       0.000092546024
 36      -0.000010953115
 37      -0.000129511419
 38       0.000264957143
 39       0.000047962292
 40      -0.000057435531
 41      -0.000026907319
 42      -0.000166931498
 43      -0.000315485003
 44      -0.000057108195
 45       0.000156418895
 46       0.000074385661
 47       0.000068388763
 Sym=     1a
 Ene= -8.71446207960938E-01
 Spin= Alpha
 Occup= 2.000000
  1       0.138046182711
  2      -0.274244924488
  3      -0.048145159175
  4      -0.053933939108
  5      -0.053933887742
  6      -0.053933968368
  7      -0.009189839172
  8      -0.009189838982
  9      -0.009189840832
 10      -0.000000005155
 11      -0.008905542455
 12      -0.008905537674
 13      -0.000000006817
 14      -0.008905536444
 15      -0.071213908610
 16       0.450489701363
 17      -0.610052256613
 18      -0.310845692936
 19       0.027717673862
 20       0.027717664029
 21       0.027717677248
 22       0.045670338064
 23       0.045670323127
 24       0.045670345007
 25       0.041212481271
 26       0.041212469290
 27       0.041212484248
 28      -0.000000008199
 29      -0.018807115917
 30      -0.018807107653
 31      -0.000000008137
 32      -0.018807104837
 33      -0.067469890011
 34      -0.008908137744
 35      -0.005991890577
 36       0.005004603894
 37      -0.005991889414
 38      -0.067469945501
 39      -0.008908135892
 40       0.005004612950
 41      -0.005991893969
 42      -0.005991890288
 43      -0.067469962635
 44      -0.008908136374
 45      -0.005991893423
 46      -0.005991893116
 47       0.005004612042
 Sym=     1a
 Ene= -6.86156814177549E-01
 Spin= Alpha
 Occup= 2.000000
  1      -0.212254595333
  2       0.432535280741
  3       0.132744106552
  4      -0.055144067696
  5      -0.055144118608
  6      -0.055144042899
  7      -0.020566833176
  8      -0.020566825647
  9      -0.020566835971
 10       0.000000000560
 11      -0.001975215492
 12      -0.001975215659
 13       0.000000002109
 14      -0.001975216670
 15      -0.045373288613
 16       0.291098045398
 17      -0.410496674059
 18      -0.223501610729
 19      -0.025980431810
 20      -0.025980428019
 21      -0.025980434467
 22      -0.041114844755
 23      -0.041114842199
 24      -0.041114851753
 25      -0.047667157440
 26      -0.047667148502
 27      -0.047667162365
 28      -0.000000001328
 29       0.008004616048
 30       0.008004618747
 31      -0.000000000443
 32       0.008004619389
 33       0.178124325634
 34       0.028793183783
 35       0.009772465594
 36      -0.012920339634
 37       0.009772464787
 38       0.178124366563
 39       0.028793186892
 40      -0.012920352730
 41       0.009772463623
 42       0.009772456851
 43       0.178124381602
 44       0.028793188359
 45       0.009772459903
 46       0.009772460527
 47      -0.012920352056
 Sym=     1a
 Ene= -4.58615732090982E-01
 Spin= Alpha
 Occup= 2.000000
  1       0.000000004273
  2      -0.000000012672
  3       0.000000013792
  4      -0.346322758492
  5       0.116660446645
  6       0.229662201876
  7      -0.157674927605
  8       0.053113555504
  9       0.104561345672
 10       0.005229290886
 11       0.003072778017
 12      -0.009121979645
 13      -0.006086350787
 14       0.006049198480
 15       0.000000003772
 16      -0.000000025658
 17       0.000000043881
 18       0.000000016686
 19      -0.068753126686
 20       0.023159840802
 21       0.045593338565
 22      -0.116890726765
 23       0.039375229972
 24       0.077515572259
 25      -0.137020773546
 26       0.046156146939
 27       0.090864738463
 28      -0.016838603513
 29       0.005585737096
 30      -0.016582051908
 31       0.019598410894
 32       0.010996296299
 33       0.108132919184
 34       0.033673181993
 35      -0.004768217226
 36      -0.001374079948
 37       0.010824209722
 38      -0.321007397660
 39      -0.099963460458
 40       0.004079128842
 41      -0.010518550277
 42      -0.007459494900
 43       0.212874523101
 44       0.066290295918
 45      -0.000305662133
 46       0.012227711609
 47      -0.002705060396
 Sym=     1a
 Ene= -4.58615699335793E-01
 Spin= Alpha
 Occup= 2.000000
  1       0.000000037070
  2      -0.000000071444
  3      -0.000000136944
  4       0.065241771884
  5      -0.332544877243
  6       0.267303655913
  7       0.029703475330
  8      -0.151402149106
  9       0.121698856494
 10       0.006086356026
 11      -0.008759071942
 12       0.001718432314
 13       0.005229272634
 14       0.007040651531
 15      -0.000000020711
 16       0.000000134418
 17      -0.000000185521
 18      -0.000000165230
 19       0.012951862364
 20      -0.066018071958
 21       0.053065879434
 22       0.022020125495
 23      -0.112240715036
 24       0.090220027528
 25       0.025812275032
 26      -0.131569972539
 27       0.105757061275
 28      -0.019598412594
 29      -0.015922336795
 30       0.003123822902
 31      -0.016838586766
 32       0.012798611924
 33      -0.308236934901
 34      -0.095986686633
 35      -0.011366414053
 36       0.003916864470
 37      -0.005896414746
 38       0.060472527341
 39       0.018831469611
 40      -0.000768429342
 41      -0.006425836913
 42       0.009812616842
 43       0.247764193337
 44       0.077155140398
 45       0.012322249118
 46       0.001553808485
 47      -0.003148405200
 Sym=     1a
 Ene= -4.24124045210048E-01
 Spin= Alpha
 Occup= 2.000000
  1      -0.004995266884
  2       0.021499057588
  3       0.014965434647
  4       0.214070647550
  5       0.214071041092
  6       0.214070572236
  7       0.092583994374
  8       0.092584194727
  9       0.092583961322
 10       0.000000002385
 11       0.016206148013
 12       0.016206138025
 13      -0.000000001511
 14       0.016206133525
 15      -0.017291608818
 16       0.112101435487
 17      -0.142784055030
 18      -0.186010290559
 19      -0.125851160810
 20      -0.125850958204
 21      -0.125851208417
 22      -0.218901573834
 23      -0.218901224396
 24      -0.218901653282
 25      -0.238771479432
 26      -0.238771075371
 27      -0.238771575316
 28       0.000000033461
 29       0.026662515242
 30       0.026662475686
 31       0.000000037908
 32       0.026662465564
 33      -0.098573883254
 34      -0.040951316672
 35       0.000919017365
 36       0.009557676970
 37       0.000919016694
 38      -0.098574164689
 39      -0.040951440062
 40       0.009557679079
 41       0.000919015782
 42       0.000919007734
 43      -0.098574224062
 44      -0.040951467668
 45       0.000919005428
 46       0.000919015347
 47       0.009557676914
 Sym=     1a
 Ene= -3.00232004973178E-01
 Spin= Alpha
 Occup= 2.000000
  1      -0.000000011703
  2       0.000000006263
  3       0.000000102709
  4       0.084664197549
  5      -0.124447871975
  6       0.039783570906
  7       0.022912088294
  8      -0.033678519209
  9       0.010766336739
 10      -0.003788780017
 11      -0.014368279029
 12       0.009775009572
 13      -0.011497776618
 14       0.004593264120
 15      -0.000000000713
 16       0.000000005114
 17      -0.000000010941
 18      -0.000000002919
 19      -0.144632514193
 20       0.212595307347
 21      -0.067962568051
 22      -0.250160689545
 23       0.367711161063
 24      -0.117550073879
 25      -0.348021952272
 26       0.511557397499
 27      -0.163534913460
 28       0.002042884860
 29       0.002175763727
 30      -0.001480219532
 31       0.006199522745
 32      -0.000695555396
 33      -0.173457958801
 34      -0.090938608604
 35      -0.000425600936
 36       0.004736121480
 37      -0.002204805331
 38       0.118006779324
 39       0.061867203525
 40      -0.003222084300
 41      -0.002360566673
 42       0.004150082796
 43       0.055451240615
 44       0.029071318392
 45       0.004565370512
 46      -0.003724478879
 47      -0.001514055508
 Sym=     1a
 Ene= -3.00231989821003E-01
 Spin= Alpha
 Occup= 2.000000
  1      -0.000000000634
  2      -0.000000005061
  3       0.000000030401
  4      -0.094819118065
  5      -0.025911875082
  6       0.120730950245
  7      -0.025660326698
  8      -0.007012379037
  9       0.032672664491
 10      -0.011497770327
 11      -0.002991685192
 12      -0.010947447275
 13       0.003788778771
 14       0.013939129603
 15      -0.000000000170
 16       0.000000000943
 17      -0.000000001604
 18       0.000000001418
 19       0.161980198897
 20       0.044265441035
 21      -0.206245546103
 22       0.280165761720
 23       0.076562821260
 24      -0.356728422496
 25       0.389764821442
 26       0.106513706691
 27      -0.496278306691
 28       0.006199515242
 29       0.000453022944
 30       0.001657748104
 31      -0.002042882428
 32      -0.002110776549
 33      -0.036116468289
 34      -0.018934746066
 35      -0.004546382241
 36       0.000986128086
 37       0.003998693148
 38      -0.132160759275
 39      -0.069287702591
 40       0.003608547739
 41      -0.003908763897
 42       0.001904614578
 43       0.168277254143
 44       0.088222414205
 45      -0.000089929997
 46       0.002641768265
 47      -0.004594682307
 Sym=     1a
 Ene= 5.13477598260722E-02
 Spin= Alpha
 Occup= 0.000000
  1       0.165928045417
  2      -0.356764794339
  3      -1.947446773462
  4      -0.179280145102
  5      -0.179280385273
  6      -0.179280105861
  7      -0.254968435792
  8      -0.254968728257
  9      -0.254968430616
 10       0.000000000867
 11       0.007014699303
 12       0.007014680185
 13       0.000000001434
 14       0.007014674715
 15       0.018126959086
 16      -0.120876049214
 17       0.125918954244
 18       0.627765664811
 19      -0.087880300151
 20      -0.087880202375
 21      -0.087880326598
 22      -0.143022349660
 23      -0.143022188843
 24      -0.143022393644
 25      -0.460583806006
 26      -0.460583338663
 27      -0.460583929579
 28      -0.000000057895
 29      -0.059195651750
 30      -0.059195592163
 31      -0.000000063353
 32      -0.059195578262
 33       0.016664581947
 34       0.708665342674
 35      -0.007026174481
 36      -0.007592942489
 37      -0.007026167970
 38       0.016664348721
 39       0.708664850507
 40      -0.007592925629
 41      -0.007026177383
 42      -0.007026158249
 43       0.016664286680
 44       0.708664679138
 45      -0.007026158606
 46      -0.007026173729
 47      -0.007592922737
 Sym=     1a
 Ene= 9.16473938147456E-02
 Spin= Alpha
 Occup= 0.000000
  1      -0.055121820050
  2       0.053387800238
  3       1.726104888172
  4      -0.222839149053
  5      -0.222839339455
  6      -0.222839101463
  7      -0.538413203991
  8      -0.538413969500
  9      -0.538412950409
 10       0.000000004604
 11       0.014162382810
 12       0.014162363674
 13       0.000000003925
 14       0.014162362390
 15       0.020321798709
 16      -0.139788782904
 17       0.263505515364
 18       0.288971460973
 19      -0.055095870369
 20      -0.055095844867
 21      -0.055095876950
 22      -0.094464535514
 23      -0.094464494542
 24      -0.094464545856
 25      -0.273566493363
 26      -0.273566339518
 27      -0.273566547088
 28      -0.000000027719
 29      -0.022146020665
 30      -0.022146011810
 31      -0.000000033076
 32      -0.022146005318
 33      -0.052447082811
 34      -1.003839182058
 35      -0.002446719457
 36      -0.015053685976
 37      -0.002446723802
 38      -0.052447290142
 39      -1.003840203994
 40      -0.015053673581
 41      -0.002446720276
 42      -0.002446718549
 43      -0.052447326362
 44      -1.003840493782
 45      -0.002446717293
 46      -0.002446721660
 47      -0.015053671254
 Sym=     1a
 Ene= 1.29337207448854E-01
 Spin= Alpha
 Occup= 0.000000
  1      -0.000000020271
  2       0.000000012017
  3       0.000000901768
  4       0.153432942034
  5      -0.308252789726
  6       0.154820549129
  7       0.510430638363
  8      -1.025475500284
  9       0.515046752110
 10       0.001279097923
 11       0.018423947648
 12      -0.009170511937
 13       0.002202227492
 14      -0.009253451023
 15      -0.000000009145
 16       0.000000058928
 17       0.000000020091
 18      -0.000000813445
 19      -0.005845493706
 20       0.011744015430
 21      -0.005898357762
 22      -0.006528132882
 23       0.013115536388
 24      -0.006587171723
 25      -0.057614739072
 26       0.115751914193
 27      -0.058135771610
 28      -0.030127599559
 29      -0.008721186893
 30       0.004341093784
 31      -0.051870731034
 32       0.004380338010
 33       0.142677974950
 34       1.882188530309
 35      -0.004964972284
 36       0.003452665336
 37      -0.004928243768
 38      -0.071017731065
 39      -0.936858087340
 40      -0.001718547438
 41      -0.003665990191
 42       0.008590327814
 43      -0.071660038154
 44      -0.945330734926
 45       0.008594228605
 46      -0.003625357868
 47      -0.001734090329
 Sym=     1a
 Ene= 1.29337234233593E-01
 Spin= Alpha
 Occup= 0.000000
  1      -0.000000000459
  2       0.000000002938
  3       0.000000107660
  4      -0.267355430942
  5       0.000801173396
  6       0.266554381328
  7      -0.889420948351
  8       0.002665310129
  9       0.886755952258
 10       0.002202221244
 11      -0.000047883595
 12       0.015979541853
 13      -0.001279097064
 14      -0.015931667032
 15      -0.000000001935
 16       0.000000012335
 17      -0.000000001032
 18      -0.000000141426
 19       0.010185803249
 20      -0.000030511800
 21      -0.010155257910
 22       0.011375314160
 23      -0.000034072030
 24      -0.011341196784
 25       0.100394037034
 26      -0.000300758399
 27      -0.100093017703
 28      -0.051870724634
 29       0.000022689990
 30      -0.007564092480
 31       0.030127589695
 32       0.007541449391
 33      -0.000370760266
 34      -0.004891751701
 35      -0.007052729414
 36      -0.000008969197
 37       0.007078442957
 38       0.123748110080
 39       1.632469330187
 40       0.002994577761
 41      -0.007807203437
 42      -0.000773419403
 43      -0.123377262868
 44      -1.627577620140
 45       0.000728760898
 46       0.007826150050
 47      -0.002985600128
 Sym=     1a
 Ene= 4.09169952513997E-01
 Spin= Alpha
 Occup= 0.000000
  1      -0.092206786382
  2       0.627925106051
  3      -1.276181864998
  4       0.386777643422
  5       0.386778162416
  6       0.386777678598
  7      -0.776801650990
  8      -0.776802821531
  9      -0.776801886336
 10       0.000000010101
 11       0.042994469292
 12       0.042994331269
 13       0.000000003220
 14       0.042994344641
 15       0.014491285461
 16      -0.109590047150
 17       0.350661032633
 18       0.492103292214
 19       0.017645352099
 20       0.017645432073
 21       0.017645360204
 22       0.027322222578
 23       0.027322391546
 24       0.027322239247
 25      -0.211612495426
 26      -0.211612004783
 27      -0.211612519938
 28       0.000000020555
 29       0.194204374441
 30       0.194204421185
 31      -0.000000059594
 32       0.194204379455
 33      -0.222461904786
 34       0.260836117159
 35      -0.000728455796
 36      -0.005191502818
 37      -0.000728468487
 38      -0.222463180082
 39       0.260837194650
 40      -0.005191452950
 41      -0.000728421503
 42      -0.000728377966
 43      -0.222463020342
 44       0.260837228563
 45      -0.000728360884
 46      -0.000728416022
 47      -0.005191445063
 Sym=     1a
 Ene= 4.27846675759754E-01
 Spin= Alpha
 Occup= 0.000000
  1      -0.000000016812
  2       0.000000027922
  3      -0.000000312011
  4      -0.123178329068
  5      -0.102915439318
  6       0.226094097283
  7       0.510644788829
  8       0.426643436954
  9      -0.937290063130
 10      -0.002787906296
 11      -0.038247169955
 12      -0.045777548964
 13       0.000144225446
 14       0.084024787269
 15      -0.000000001406
 16       0.000000012127
 17      -0.000000146364
 18       0.000000842622
 19      -0.027205773304
 20      -0.022730458730
 21       0.049936241043
 22      -0.057441572496
 23      -0.047992522945
 24       0.105434152780
 25      -0.104302550741
 26      -0.087144802534
 27       0.191446495579
 28       0.195907977743
 29       0.041396988960
 30       0.049547412327
 31      -0.010136823689
 32      -0.090944366779
 33      -0.368856440094
 34       0.085135531254
 35       0.035361354522
 36       0.003655549982
 37      -0.031310862291
 38      -0.441479583375
 39       0.101897120605
 40       0.004375272873
 41       0.033826116233
 42      -0.028978140359
 43       0.810335072562
 44      -0.187032274679
 45      -0.002515281913
 46      -0.006383232006
 47      -0.008030888244
 Sym=     1a
 Ene= 4.27846719801021E-01
 Spin= Alpha
 Occup= 0.000000
  1       0.000000075547
  2      -0.000000484712
  3       0.000001381118
  4      -0.189954036980
  5       0.201652058970
  6      -0.011699005662
  7       0.787468710864
  8      -0.835964096908
  9       0.048498920962
 10       0.000144286529
 11       0.074941397229
 12      -0.070593805595
 13       0.002787980352
 14      -0.004347735478
 15      -0.000000015501
 16       0.000000113068
 17      -0.000000226827
 18      -0.000001192258
 19      -0.041954166423
 20       0.044538002067
 21      -0.002583870863
 22      -0.088581013316
 23       0.094036444119
 24      -0.005455546282
 25      -0.160844255551
 26       0.170751216849
 27      -0.009905445100
 28      -0.010136833645
 29      -0.081113311642
 30       0.076407271984
 31      -0.195908062019
 32       0.004705669498
 33       0.722736018889
 34      -0.166814007861
 35       0.013045193569
 36      -0.007162710906
 37      -0.020981733606
 38      -0.680806140570
 39       0.157135576640
 40       0.006747217438
 41      -0.016625116510
 42       0.024101270893
 43      -0.041928634142
 44       0.009677563405
 45       0.037606872171
 46      -0.037146403265
 47       0.000415576692
 Sym=     1a
 Ene= 5.33276836584555E-01
 Spin= Alpha
 Occup= 0.000000
  1       0.044355427194
  2      -0.084907811321
  3       0.075906915545
  4      -0.007470940427
  5      -0.007470918711
  6      -0.007470894175
  7       0.449333938439
  8       0.449334245513
  9       0.449333584564
 10       0.000000009358
 11      -0.012212343933
 12      -0.012212315240
 13       0.000000036206
 14      -0.012212295728
 15       0.066821392245
 16      -0.505806879341
 17       1.990291928068
 18      -2.333270196174
 19       0.031090819963
 20       0.031090813981
 21       0.031090839409
 22       0.076009300644
 23       0.076009298567
 24       0.076009344095
 25       0.148732451289
 26       0.148732282098
 27       0.148732540330
 28       0.000000125333
 29       0.041750139028
 30       0.041750129406
 31       0.000000068481
 32       0.041750071845
 33       0.331279625895
 34       0.045021562026
 35      -0.021637593653
 36       0.026384442215
 37      -0.021637600847
 38       0.331279825465
 39       0.045021826611
 40       0.026384424754
 41      -0.021637610259
 42      -0.021637664889
 43       0.331280023172
 44       0.045021980825
 45      -0.021637671999
 46      -0.021637627355
 47       0.026384405496
 Sym=     1a
 Ene= 6.48493935366356E-01
 Spin= Alpha
 Occup= 0.000000
  1       0.261559107563
  2      -1.730933780285
  3       4.451721632320
  4       0.302266060024
  5       0.302263730491
  6       0.302266716897
  7      -0.562522157369
  8      -0.562518009312
  9      -0.562523215043
 10       0.000000017955
 11      -0.035351957504
 12      -0.035352319006
 13       0.000000028264
 14      -0.035352438126
 15      -0.011104214767
 16       0.084300614458
 17      -0.309825970509
 18       0.181540846741
 19      -0.009285726851
 20      -0.009285716078
 21      -0.009285730710
 22      -0.027295808300
 23      -0.027295735772
 24      -0.027295826327
 25       0.059370629052
 26       0.059370063964
 27       0.059370761631
 28       0.000000175583
 29      -0.011012324417
 30      -0.011012210672
 31       0.000000214963
 32      -0.011012106545
 33       0.272757229918
 34      -1.441020111431
 35      -0.052412720889
 36       0.084453022568
 37      -0.052412679509
 38       0.272755589448
 39      -1.441014546623
 40       0.084452823711
 41      -0.052412420355
 42      -0.052412229537
 43       0.272755076236