
                                 *****************
                                 * O   R   C   A *
                                 *****************

                                            #,                                       
                                            ###                                      
                                            ####                                     
                                            #####                                    
                                            ######                                   
                                           ########,                                 
                                     ,,################,,,,,                         
                               ,,#################################,,                 
                          ,,##########################################,,             
                       ,#########################################, ''#####,          
                    ,#############################################,,   '####,        
                  ,##################################################,,,,####,       
                ,###########''''           ''''###############################       
              ,#####''   ,,,,##########,,,,          '''####'''          '####       
            ,##' ,,,,###########################,,,                        '##       
           ' ,,###''''                  '''############,,,                           
         ,,##''                                '''############,,,,        ,,,,,,###''
      ,#''                                            '''#######################'''  
     '                                                          ''''####''''         
             ,#######,   #######,   ,#######,      ##                                
            ,#'     '#,  ##    ##  ,#'     '#,    #''#        ,####,   ,####,        
            ##       ##  ##   ,#'  ##            #'  '#       #'       #'  '#        
            ##       ##  #######   ##           ,######,      #####,   #    #        
            '#,     ,#'  ##    ##  '#,     ,#' ,#      #,     #,   #   #,  ,#        
             '#######'   ##     ##  '#######'  #'      '#     '####' # '####'        



                #########################################################
                #                        -***-                          #
                #          Department of theory and spectroscopy        #
                #                                                       #
                #                      Frank Neese                      #
                #                                                       #
                #     Directorship, Architecture, Infrastructure        #
                #                    SHARK, DRIVERS                     #
                #        Core code/Algorithms in most modules           #
                #                                                       #
                #        Max Planck Institute fuer Kohlenforschung      #
                #                Kaiser Wilhelm Platz 1                 #
                #                 D-45470 Muelheim/Ruhr                 #
                #                      Germany                          #
                #                                                       #
                #                  All rights reserved                  #
                #                        -***-                          #
                #########################################################


                         Program Version 6.0.1  -  RELEASE   -


 With contributions from (in alphabetic order):
[Max-Planck-Institut fuer Kohlenforschung]                               
  Daniel Aravena         : Magnetic Suceptibility                        
  Michael Atanasov       : Ab Initio Ligand Field Theory (pilot matlab implementation)
  Alexander A. Auer      : GIAO ZORA, VPT2 properties, NMR spectrum      
  Ute Becker             : All parallelization in ORCA, NUMFREQ, NUMCALC 
  Giovanni Bistoni       : ED, misc. LED, open-shell LED, HFLD           
  Martin Brehm           : Molecular dynamics                            
  Dmytro Bykov           : pre 5.0 version of the SCF Hessian            
  Marcos Casanova-Páez   : Triplet and SCS-CIS(D). UHF-(DLPNO)-IP/EA/STEOM-CCSD. UHF-CVS-IP/STEOM-CCSD   
  Vijay G. Chilkuri      : MRCI spin determinant printing, contributions to CSF-ICE 
  Pauline Colinet        : FMM embedding                                 
  Dipayan Datta          : RHF DLPNO-CCSD density                        
  Achintya Kumar Dutta   : EOM-CC, STEOM-CC                              
  Nicolas Foglia         : Exact transition moments, OPA infrastructure, MCD improvements    
  Dmitry Ganyushin       : Spin-Orbit,Spin-Spin,Magnetic field MRCI      
  Miquel Garcia-Rates    : C-PCM and meta-GGA Hessian, CCSD/C-PCM, Gaussian charge scheme 
  Tiago L. C. Gouveia    : GS-ROHF, GS-ROCIS                             
  Yang Guo               : DLPNO-NEVPT2, F12-NEVPT2, CIM, IAO-localization        
  Andreas Hansen         : Spin unrestricted coupled pair/coupled cluster methods 
  Ingolf Harden          : AUTO-CI MPn and infrastructure                
  Benjamin Helmich-Paris : MC-RPA, TRAH-(SCF,CASSCF), AVAS, COSX integrals, SCF dyn. polar. 
  Lee Huntington         : MR-EOM, pCC                                   
  Robert Izsak           : Overlap fitted RIJCOSX, COSX-SCS-MP3, EOM     
  Riya Kayal             : Wick's Theorem for AUTO-CI, AUTO-CI UHF-CCSDT 
  Emily Kempfer          : AUTO-CI, RHF CISDT and CCSDT                  
  Christian Kollmar      : KDIIS, OOCD, Brueckner-CCSD(T), CCSD density, CASPT2, CASPT2-K, improved NEVPT2 
  Axel Koslowski         : Symmetry handling                             
  Simone Kossmann        : meta-GGA functionals, TD-DFT gradient, OOMP2, (MP2 Hessian; deprecated post 5.0) 
  Lucas Lang             : DCDCAS                                        
  Marvin Lechner         : AUTO-CI (C++ implementation), FIC-MRCC        
  Spencer Leger          : CASSCF response                               
  Dagmar Lenk            : GEPOL surface, SMD, ORCA-2-JSON               
  Dimitrios Liakos       : Extrapolation schemes; Compound Job, initial MDCI parallelization 
  Dimitrios Manganas     : Further ROCIS development; embedding schemes. LFT, Crystal Embedding 
  Dimitrios Pantazis     : SARC Basis sets                               
  Anastasios Papadopoulos: AUTO-CI, single reference methods and gradients 
  Taras Petrenko         : pre 6.0 DFT Hessian and TD-DFT gradient, (ASA, deprecated), ECA, 1-Electron XAS/XES, NRVS 
  Peter Pinski           : DLPNO-MP2, DLPNO-MP2 Gradient                 
  Christoph Reimann      : Effective Core Potentials                     
  Marius Retegan         : Local ZFS, SOC                                
  Christoph Riplinger    : Optimizer, TS searches, QM/MM, DLPNO-CCSD(T), (RO)-DLPNO pert. Triples 
  Michael Roemelt        : Original ROCIS implementation                 
  Masaaki Saitow         : Open-shell DLPNO-CCSD energy and density      
  Barbara Sandhoefer     : DKH picture change effects                    
  Kantharuban Sivalingam : CASSCF convergence/infrastructure, NEVPT2 and variants, FIC-MRCI 
  Bernardo de Souza      : ESD, SOC TD-DFT                               
  Georgi L. Stoychev     : AutoAux, RI-MP2 NMR, DLPNO-MP2 response, X2C  
  Van Anh Tran           : RI-MP2 g-tensors                              
  Willem Van den Heuvel  : Paramagnetic NMR                              
  Zikuan Wang            : NOTCH, Electric field optimization            
  Frank Wennmohs         : Technical directorship and infrastructure     
  Hang Xu                : AUTO-CI-Response properties                   
                                                                         
[FACCTs GmbH]                                                            
  Markus Bursch, Miquel Garcia-Rates, Christoph Riplinger, Bernardo de Souza, Georgi L. Stoychev 
                                                                 
  APM, Basis sets (HGBS, AHGBS, def-TZVP (Ac-Lr), def2-XVPD (La-Lu)), CI-OPT, improved COSX, DLPNO-Multilevel,           
  DOCKER, DRACO, updates on ESD, GOAT, IRC, LR-CPCM, MBIS, meta-GGA TD-DFT gradient, ML-optimized integration grids, 
  MM, NACMEs, nearIR, NEB, NEB-TS, NL-DFT gradient (VV10), 2- and 3-layer-ONIOM, interface openCOSMO-RS, QMMM,   
  Crystal-QMMM, SF, symmetry and pop. for TD-DFT, r2SCAN hybrids, SOLVATOR                                   
                                                                         
[Other institutions]                                                     
  V. Asgeirsson          : NEB                                           
  Christoph Bannwarth    : sTDA-DFT, sTD-DFT, PBEh-3c, B97-3c, D3        
  Sebastian Ehlert       : rSCAN, r2SCAN, r2SCAN-3c, D4, dhf basis sets  
  Marvin Friede          : D4 for Fr, Ra, Ac-Lr                          
  Lars Goerigk           : TD-DFT with DH, B97 family of functionals     
  Stefan Grimme          : VdW corrections, initial TS optimization, DFT functionals, gCP, sTDA/sTD-DF 
  Waldemar Hujo          : DFT-NL                                        
  H. Jonsson             : NEB                                           
  Holger Kruse           : gCP                                           
  Marcel Mueller         : wB97X-3c, vDZP basis set                      
  Hagen Neugebauer       : wr2SCAN                                       
  Tobias Risthaus        : range-separated hybrid DFT                    
  Lukas Wittmann         : regularized MP2, r2SCAN double-hybrids, wr2SCAN        
                                                                         
We gratefully acknowledge several colleagues who have allowed us to      
interface, adapt or use parts of their codes:                            
  Ed Valeev, F. Pavosevic, A. Kumar             : LibInt (2-el integral package), F12 methods 
  Garnet Chan, S. Sharma, J. Yang, R. Olivares  : DMRG                   
  Ulf Ekstrom                                   : XCFun DFT Library      
  Mihaly Kallay                                 : mrcc  (arbitrary order and MRCC methods)
  Frank Weinhold                                : gennbo (NPA and NBO analysis)           
  Simon Mueller                                 : openCOSMO-RS                            
  Christopher J. Cramer and Donald G. Truhlar   : smd solvation model                     
  S Lehtola, MJT Oliveira, MAL Marques          : LibXC Library                           
  Liviu Ungur et al                             : ANISO software                          


 Your calculation uses the libint2 library for the computation of 2-el integrals
 For citations please refer to: http://libint.valeyev.net

 Your ORCA version has been built with support for libXC version: 6.2.2
 For citations please refer to: https://libxc.gitlab.io

 This ORCA versions uses:
   CBLAS   interface :  Fast vector & matrix operations
   LAPACKE interface :  Fast linear algebra routines
   SCALAPACK package :  Parallel linear algebra routines
   Shared memory     :  Shared parallel matrices
   BLAS/LAPACK       :  OpenBLAS 0.3.27  USE64BITINT DYNAMIC_ARCH NO_AFFINITY Haswell SINGLE_THREADED
        Core in use  :  Haswell
   Copyright (c) 2011-2014, The OpenBLAS Project




***************************************
The coordinates will be read from file: n1_CNNH2.xyz
***************************************


================================================================================

----- Orbital basis set information -----
Your calculation utilizes the basis: def2-SVP
   F. Weigend and R. Ahlrichs, Phys. Chem. Chem. Phys. 7, 3297 (2005).

----- AuxJ basis set information -----
Your calculation utilizes the auxiliary basis: SARC/J 
   decontracted def2/J up to Kr:
   F. Weigend, Phys. Chem. Chem. Phys. 8, 1057 (2006)
   and SARC auxiliary basis sets beyond Kr:
   D. A. Pantazis and F. Neese, J. Chem. Theory Comput. 5, 2229 (2009).
   D. A. Pantazis, X. Y. Chen, C. R. Landis and F. Neese, J. Chem. Theory Comput. 4, 908 (2008).
   D. A. Pantazis and F. Neese, Theor. Chem. Acc. 131, 1292 (2012).
   D. A. Pantazis and F. Neese, J. Chem. Theory Comput. 7, 677 (2011).

----- AuxC basis set information -----
Your calculation utilizes the auxiliary basis: def2-SVP/C
  H-La, Hf-Rn : A. Hellweg, C. Hattig, S. Hofener and W. Klopper, Theor. Chem. Acc. 117, 587 (2007).
        Ce-Lu : J. Chmela and M. E. Harding, Mol. Phys. (2018).

================================================================================
                                        WARNINGS
                       Please study these warnings very carefully!
================================================================================


WARNING: In scalar relativistic gradient/hessian runs we need the one-center approximation
  ===> : %rel OneCenter is turned on

WARNING: Requested PictureChange>0 is not available for DKH one-center approximation (OneCenter=true).
         Continueing the run with OneCenter=true and no picture change (PictureChange=0).
         If picture change is important, repeat the calculation with OneCenter=false. 

WARNING: Geometry Optimization
  ===> : Switching off AutoStart
         For restart on a previous wavefunction, please use MOREAD



***************************************
The coordinates will be read from file: n1_CNNH2.xyz
***************************************


================================================================================

----- Orbital basis set information -----
Your calculation utilizes the basis: def2-SVP
   F. Weigend and R. Ahlrichs, Phys. Chem. Chem. Phys. 7, 3297 (2005).

----- AuxJ basis set information -----
Your calculation utilizes the auxiliary basis: SARC/J 
   decontracted def2/J up to Kr:
   F. Weigend, Phys. Chem. Chem. Phys. 8, 1057 (2006)
   and SARC auxiliary basis sets beyond Kr:
   D. A. Pantazis and F. Neese, J. Chem. Theory Comput. 5, 2229 (2009).
   D. A. Pantazis, X. Y. Chen, C. R. Landis and F. Neese, J. Chem. Theory Comput. 4, 908 (2008).
   D. A. Pantazis and F. Neese, Theor. Chem. Acc. 131, 1292 (2012).
   D. A. Pantazis and F. Neese, J. Chem. Theory Comput. 7, 677 (2011).

----- AuxC basis set information -----
Your calculation utilizes the auxiliary basis: def2-SVP/C
  H-La, Hf-Rn : A. Hellweg, C. Hattig, S. Hofener and W. Klopper, Theor. Chem. Acc. 117, 587 (2007).
        Ce-Lu : J. Chmela and M. E. Harding, Mol. Phys. (2018).

================================================================================
                                        WARNINGS
                       Please study these warnings very carefully!
================================================================================


WARNING: Requested PictureChange>0 is not available for DKH one-center approximation (OneCenter=true).
         Continueing the run with OneCenter=true and no picture change (PictureChange=0).
         If picture change is important, repeat the calculation with OneCenter=false. 
INFO   : Checking CIS options ...

================================================================================
                                       INPUT FILE
================================================================================
NAME = n1_CNNH2.inp
|  1> !def2-SVP PBE0 SARC/J def2-SVP/C Opt
|  2> * xyzfile 0 1 n1_CNNH2.xyz
|  3> %scf
|  4> MaxIter 100
|  5> end
|  6> %rel
|  7> method DKH
|  8> order 2
|  9> picturechange 2
| 10> end
| 11> $new_job
| 12> !def2-SVP PBE0 RI-SOMF(1X) SARC/J def2-SVP/C
| 13> %TDDFT
| 14> NROOTS  3
| 15> DOSOC   TRUE
| 16> TDA     TRUE
| 17> TRIPLETS TRUE
| 18> END
| 19> * xyzfile 0 1 n1_CNNH2.xyz
| 20> %scf
| 21> MaxIter 100
| 22> end
| 23> %rel
| 24> method DKH
| 25> order 2
| 26> picturechange 2
| 27> SOCType 3
| 28> SOCFlags 1,3,3,0
| 29> SOCMaxCenter 4
| 30> end
| 31> 
| 32>                          ****END OF INPUT****
================================================================================


                 $$$$$$$$$$$$$$$$$$$$$$$$$$$$$$$$$$$$$$$$$$$$$$ 
                 $ THERE ARE  2 JOBS TO BE PROCESSED THIS RUN $
                 $$$$$$$$$$$$$$$$$$$$$$$$$$$$$$$$$$$$$$$$$$$$$$ 




                 $$$$$$$$$$$$$$$$  JOB NUMBER  1 $$$$$$$$$$$$$$


                       *****************************
                       * Geometry Optimization Run *
                       *****************************

Geometry optimization settings:
Update method            Update   .... BFGS
Choice of coordinates    CoordSys .... (2022) Redundant Internals
Initial Hessian          InHess   .... Almloef's Model
Max. no of cycles        MaxIter  .... 105

Convergence Tolerances:
Energy Change            TolE     ....  5.0000e-06 Eh
Max. Gradient            TolMAXG  ....  3.0000e-04 Eh/bohr
RMS Gradient             TolRMSG  ....  1.0000e-04 Eh/bohr
Max. Displacement        TolMAXD  ....  4.0000e-03 bohr
RMS Displacement         TolRMSD  ....  2.0000e-03 bohr
Strict Convergence                .... False

------------------------------------------------------------------------------
                        ORCA OPTIMIZATION COORDINATE SETUP
------------------------------------------------------------------------------

The optimization will be done in redundant internal coordinates (2022)
Making redundant internal coordinates   ...  (2022 redundants) done
Evaluating the initial hessian          ...  (Almloef) done
Evaluating the coordinates              ...  done
Calculating the B-matrix                .... done
Calculating the G-matrix                .... done
Diagonalizing the G-matrix              .... done
Small eigenvalue found = 2.661e-03
Small eigenvalue found = 1.276e-02
Small eigenvalue found = 1.345e-02
Small eigenvalue found = 2.274e-02
The first mode is                       ....   82
The number of degrees of freedom        ....   99

    -----------------------------------------------------------------
                    Redundant Internal Coordinates


    -----------------------------------------------------------------
         Definition                    Initial Value    Approx d2E/dq
    -----------------------------------------------------------------
      1. B(C   1,C   0)                  1.4125         0.575290   
      2. B(C   2,C   0)                  1.4009         0.600304   
      3. B(C   3,C   2)                  1.3898         0.625236   
      4. B(C   4,C   3)                  1.3921         0.620074   
      5. B(C   5,C   4)                  1.3895         0.625867   
      6. B(C   5,C   1)                  1.4005         0.601243   
      7. B(H   6,C   2)                  1.0868         0.364393   
      8. B(H   7,C   3)                  1.0864         0.364891   
      9. B(H   8,C   4)                  1.0861         0.365277   
     10. B(H   9,C   5)                  1.0869         0.364231   
     11. B(C  10,C   0)                  1.4798         0.449299   
     12. B(C  11,C  10)                  1.4001         0.602017   
     13. B(C  12,C  11)                  1.3876         0.630289   
     14. B(C  13,C  12)                  1.4031         0.595423   
     15. B(C  14,C  13)                  1.4044         0.592647   
     16. B(C  15,C  14)                  1.3856         0.634987   
     17. B(C  15,C  10)                  1.4012         0.599601   
     18. B(C  16,C   1)                  1.4815         0.446364   
     19. B(C  17,C  16)                  1.4025         0.596817   
     20. B(C  18,C  17)                  1.3845         0.637616   
     21. B(C  19,C  18)                  1.4024         0.596958   
     22. B(C  20,C  19)                  1.4000         0.602302   
     23. B(C  21,C  20)                  1.3871         0.631382   
     24. B(C  21,C  16)                  1.4007         0.600615   
     25. B(H  22,C  11)                  1.0873         0.363648   
     26. B(H  23,C  13)                  1.0700         0.387554   
     27. B(H  24,C  19)                  1.0700         0.387558   
     28. B(H  25,C  14)                  1.0875         0.363447   
     29. B(H  26,C  15)                  1.0864         0.364833   
     30. B(H  27,C  17)                  1.0849         0.366940   
     31. B(H  28,C  18)                  1.0851         0.366644   
     32. B(C  29,C  20)                  1.4010         0.600153   
     33. B(H  30,C  21)                  1.0860         0.365377   
     34. B(N  31,C  29)                  1.7022         0.177761   
     35. B(N  32,C  12)                  1.0700         1.813089   
     36. B(H  33,N  32)                  1.0300         0.402053   
     37. B(H  34,N  32)                  1.0300         0.402051   
     38. A(C   1,C   0,C  10)          122.7973         0.404421   
     39. A(C   2,C   0,C  10)          118.8081         0.407474   
     40. A(C   1,C   0,C   2)          118.3711         0.425800   
     41. A(C   5,C   1,C  16)          118.0027         0.407115   
     42. A(C   0,C   1,C  16)          122.6627         0.403953   
     43. A(C   0,C   1,C   5)          119.2938         0.425919   
     44. A(C   0,C   2,H   6)          118.4874         0.351691   
     45. A(C   3,C   2,H   6)          119.7502         0.354122   
     46. A(C   0,C   2,C   3)          121.7357         0.432206   
     47. A(C   2,C   3,H   7)          119.8856         0.354204   
     48. A(C   2,C   3,C   4)          119.7175         0.434733   
     49. A(C   4,C   3,H   7)          120.3910         0.353707   
     50. A(C   3,C   4,H   8)          120.5700         0.353770   
     51. A(C   3,C   4,C   5)          119.4198         0.434812   
     52. A(C   5,C   4,H   8)          120.0072         0.354328   
     53. A(C   1,C   5,C   4)          121.4373         0.432406   
     54. A(C   4,C   5,H   9)          119.7368         0.354156   
     55. A(C   1,C   5,H   9)          118.7865         0.351758   
     56. A(C   0,C  10,C  15)          121.7419         0.407390   
     57. A(C  11,C  10,C  15)          117.5040         0.429189   
     58. A(C   0,C  10,C  11)          120.7310         0.407679   
     59. A(C  10,C  11,C  12)          121.5527         0.433054   
     60. A(C  12,C  11,H  22)          119.1258         0.354482   
     61. A(C  10,C  11,H  22)          119.3119         0.351739   
     62. A(C  11,C  12,N  32)          119.6932         0.526936   
     63. A(C  11,C  12,C  13)          120.6135         0.432197   
     64. A(C  13,C  12,N  32)          119.6933         0.521332   
     65. A(C  12,C  13,C  14)          118.1198         0.427447   
     66. A(C  14,C  13,H  23)          120.9401         0.354608   
     67. A(C  12,C  13,H  23)          120.9401         0.354889   
     68. A(C  13,C  14,C  15)          120.7247         0.432411   
     69. A(C  15,C  14,H  25)          119.8212         0.354896   
     70. A(C  13,C  14,H  25)          119.4539         0.350775   
     71. A(C  10,C  15,C  14)          121.4796         0.433319   
     72. A(C  14,C  15,H  26)          119.0434         0.355125   
     73. A(C  10,C  15,H  26)          119.4728         0.351693   
     74. A(C   1,C  16,C  21)          120.2149         0.407039   
     75. A(C   1,C  16,C  17)          121.0783         0.406583   
     76. A(C  17,C  16,C  21)          118.6641         0.428652   
     77. A(C  16,C  17,C  18)          120.9431         0.433279   
     78. A(C  18,C  17,H  27)          119.5936         0.355721   
     79. A(C  16,C  17,H  27)          119.4631         0.351759   
     80. A(C  17,C  18,C  19)          119.7226         0.433297   
     81. A(C  19,C  18,H  28)          119.8549         0.351725   
     82. A(C  17,C  18,H  28)          120.4222         0.355673   
     83. A(C  18,C  19,C  20)          120.0287         0.428885   
     84. A(C  20,C  19,H  24)          119.9854         0.355582   
     85. A(C  18,C  19,H  24)          119.9859         0.355045   
     86. A(C  21,C  20,C  29)          121.6001         0.432948   
     87. A(C  19,C  20,C  29)          118.7789         0.429296   
     88. A(C  19,C  20,C  21)          119.5807         0.433226   
     89. A(C  20,C  21,H  30)          119.5184         0.354872   
     90. A(C  16,C  21,H  30)          119.4134         0.351882   
     91. A(C  16,C  21,C  20)          121.0581         0.433008   
     92. A(C  20,C  29,N  31)          171.5797         0.345044   
     93. A(H  33,N  32,H  34)          109.4716         0.296247   
     94. A(C  12,N  32,H  34)          109.4713         0.427132   
     95. A(C  12,N  32,H  33)          109.4715         0.427133   
     96. D(C   5,C   1,C   0,C  10)   -176.4848         0.022721   
     97. D(C   5,C   1,C   0,C   2)      1.7298         0.022721   
     98. D(C  16,C   1,C   0,C  10)      5.8841         0.022721   
     99. D(C  16,C   1,C   0,C   2)   -175.9013         0.022721   
    100. D(H   6,C   2,C   0,C   1)   -178.8655         0.024844   
    101. D(C   3,C   2,C   0,C  10)    177.5351         0.024844   
    102. D(H   6,C   2,C   0,C  10)     -0.5783         0.024844   
    103. D(C   3,C   2,C   0,C   1)     -0.7522         0.024844   
    104. D(H   7,C   3,C   2,H   6)     -1.6162         0.027079   
    105. D(H   7,C   3,C   2,C   0)   -179.7062         0.027079   
    106. D(C   4,C   3,C   2,H   6)    177.4995         0.027079   
    107. D(C   4,C   3,C   2,C   0)     -0.5905         0.027079   
    108. D(H   8,C   4,C   3,C   2)   -179.6888         0.026606   
    109. D(C   5,C   4,C   3,H   7)   -179.9547         0.026606   
    110. D(C   5,C   4,C   3,C   2)      0.9341         0.026606   
    111. D(H   8,C   4,C   3,H   7)     -0.5776         0.026606   
    112. D(H   9,C   5,C   4,H   8)     -1.6194         0.027137   
    113. D(C   1,C   5,C   4,H   8)   -179.3068         0.027137   
    114. D(C   1,C   5,C   4,C   3)      0.0738         0.027137   
    115. D(H   9,C   5,C   1,C  16)     -1.3903         0.024926   
    116. D(H   9,C   5,C   1,C   0)   -179.1316         0.024926   
    117. D(H   9,C   5,C   4,C   3)    177.7612         0.027137   
    118. D(C   4,C   5,C   1,C  16)    176.3185         0.024926   
    119. D(C   4,C   5,C   1,C   0)     -1.4228         0.024926   
    120. D(C  15,C  10,C   0,C   2)   -130.0530         0.013761   
    121. D(C  15,C  10,C   0,C   1)     48.1541         0.013761   
    122. D(C  11,C  10,C   0,C   2)     48.1546         0.013761   
    123. D(C  11,C  10,C   0,C   1)   -133.6383         0.013761   
    124. D(H  22,C  11,C  10,C   0)      2.0705         0.024994   
    125. D(C  12,C  11,C  10,C  15)     -0.7858         0.024994   
    126. D(C  12,C  11,C  10,C   0)   -179.0673         0.024994   
    127. D(H  22,C  11,C  10,C  15)   -179.6480         0.024994   
    128. D(N  32,C  12,C  11,H  22)     -0.7421         0.027546   
    129. D(N  32,C  12,C  11,C  10)   -179.6063         0.027546   
    130. D(C  13,C  12,C  11,H  22)    179.2577         0.027546   
    131. D(C  13,C  12,C  11,C  10)      0.3935         0.027546   
    132. D(H  23,C  13,C  12,N  32)      0.3088         0.024421   
    133. D(H  23,C  13,C  12,C  11)   -179.6910         0.024421   
    134. D(C  14,C  13,C  12,N  32)   -179.6914         0.024421   
    135. D(C  14,C  13,C  12,C  11)      0.3088         0.024421   
    136. D(H  25,C  14,C  13,H  23)     -0.7639         0.024182   
    137. D(H  25,C  14,C  13,C  12)    179.2363         0.024182   
    138. D(C  15,C  14,C  13,H  23)    179.4001         0.024182   
    139. D(C  15,C  14,C  13,C  12)     -0.5998         0.024182   
    140. D(H  26,C  15,C  14,H  25)     -0.3888         0.027985   
    141. D(H  26,C  15,C  14,C  13)    179.4466         0.027985   
    142. D(C  10,C  15,C  14,H  25)   -179.6369         0.027985   
    143. D(C  10,C  15,C  14,C  13)      0.1985         0.027985   
    144. D(H  26,C  15,C  10,C  11)   -178.7542         0.024783   
    145. D(H  26,C  15,C  10,C   0)     -0.4912         0.024783   
    146. D(C  14,C  15,C  10,C  11)      0.4907         0.024783   
    147. D(C  14,C  15,C  10,C   0)    178.7537         0.024783   
    148. D(C  21,C  16,C   1,C   5)     48.8927         0.013586   
    149. D(C  21,C  16,C   1,C   0)   -133.4472         0.013586   
    150. D(C  17,C  16,C   1,C   5)   -128.7013         0.013586   
    151. D(C  17,C  16,C   1,C   0)     48.9588         0.013586   
    152. D(H  27,C  17,C  16,C  21)   -179.4951         0.024541   
    153. D(H  27,C  17,C  16,C   1)     -1.8646         0.024541   
    154. D(C  18,C  17,C  16,C  21)      0.3582         0.024541   
    155. D(C  18,C  17,C  16,C   1)    177.9887         0.024541   
    156. D(H  28,C  18,C  17,C  16)   -179.6962         0.028233   
    157. D(C  19,C  18,C  17,H  27)    179.9541         0.028233   
    158. D(C  19,C  18,C  17,C  16)      0.1010         0.028233   
    159. D(H  28,C  18,C  17,H  27)      0.1569         0.028233   
    160. D(H  24,C  19,C  18,H  28)     -0.5824         0.024553   
    161. D(H  24,C  19,C  18,C  17)    179.6193         0.024553   
    162. D(C  20,C  19,C  18,H  28)    179.4184         0.024553   
    163. D(C  20,C  19,C  18,C  17)     -0.3799         0.024553   
    164. D(C  29,C  20,C  19,H  24)      2.4629         0.025019   
    165. D(C  29,C  20,C  19,C  18)   -177.5380         0.025019   
    166. D(C  21,C  20,C  19,H  24)   -179.8074         0.025019   
    167. D(C  21,C  20,C  19,C  18)      0.1917         0.025019   
    168. D(H  30,C  21,C  20,C  29)     -3.2223         0.027648   
    169. D(H  30,C  21,C  20,C  19)    179.1140         0.027648   
    170. D(C  16,C  21,C  20,C  29)    177.9423         0.027648   
    171. D(C  16,C  21,C  20,C  19)      0.2787         0.027648   
    172. D(H  30,C  21,C  16,C  17)   -179.3869         0.024871   
    173. D(H  30,C  21,C  16,C   1)      2.9615         0.024871   
    174. D(C  20,C  21,C  16,C  17)     -0.5503         0.024871   
    175. D(C  20,C  21,C  16,C   1)   -178.2019         0.024871   
    176. D(N  31,C  29,C  20,C  21)   -108.5431         0.022528   
    177. D(N  31,C  29,C  20,C  19)     69.1388         0.022528   
    178. D(H  34,N  32,C  12,C  13)    -59.9997         0.376650   
    179. D(H  34,N  32,C  12,C  11)    120.0001         0.376650   
    180. D(H  33,N  32,C  12,C  13)    179.9995         0.376650   
    181. D(H  33,N  32,C  12,C  11)     -0.0007         0.376650   
    -----------------------------------------------------------------

Number of atoms                         .... 35
Number of degrees of freedom            .... 181


         *************************************************************
         *                GEOMETRY OPTIMIZATION CYCLE   1            *
         *************************************************************
---------------------------------
CARTESIAN COORDINATES (ANGSTROEM)
---------------------------------
  C     -3.225930   -0.640230   -0.033080
  C     -1.816710   -0.546990   -0.011160
  C     -3.809040   -1.913940   -0.021830
  C     -3.038600   -3.070540   -0.005500
  C     -1.649850   -2.974780   -0.012480
  C     -1.052190   -1.720350   -0.016010
  H     -4.892680   -1.988270   -0.057560
  H     -3.522430   -4.043250   -0.001920
  H     -1.034400   -3.869660   -0.005000
  H      0.031220   -1.639260    0.015410
  C     -4.106710    0.546610   -0.106030
  C     -5.216050    0.667370    0.739600
  C     -6.064110    1.763640    0.672750
  C     -5.835930    2.787770   -0.258810
  C     -4.733320    2.665620   -1.119980
  C     -3.890270    1.568960   -1.039480
  C     -1.102240    0.748440    0.068590
  C     -1.454740    1.711970    1.024770
  C     -0.758490    2.904520    1.123870
  C      0.313930    3.157710    0.256370
  C      0.682000    2.203550   -0.699690
  C     -0.022690    1.011730   -0.784250
  H     -5.408540   -0.106340    1.478930
  H     -6.483680    3.637790   -0.311590
  H      0.851070    4.080550    0.325220
  H     -4.543390    3.440680   -1.858780
  H     -3.050590    1.497720   -1.725210
  H     -2.283520    1.517960    1.697410
  H     -1.035360    3.642040    1.870090
  C      1.789650    2.461070   -1.517900
  H      0.254480    0.278380   -1.535820
  N      3.272000    2.745890   -2.304590
  N     -6.899820    1.828590    1.337780
  H     -6.917280    0.999870    1.949190
  H     -6.815130    2.678380    1.913620

----------------------------
CARTESIAN COORDINATES (A.U.)
----------------------------
  NO LB      ZA    FRAG     MASS         X           Y           Z
   0 C     6.0000    0    12.011   -6.096124   -1.209859   -0.062512
   1 C     6.0000    0    12.011   -3.433084   -1.033661   -0.021089
   2 C     6.0000    0    12.011   -7.198042   -3.616822   -0.041253
   3 C     6.0000    0    12.011   -5.742122   -5.802480   -0.010393
   4 C     6.0000    0    12.011   -3.117765   -5.621520   -0.023584
   5 C     6.0000    0    12.011   -1.988351   -3.250990   -0.030255
   6 H     1.0000    0     1.008   -9.245825   -3.757286   -0.108773
   7 H     1.0000    0     1.008   -6.656428   -7.640635   -0.003628
   8 H     1.0000    0     1.008   -1.954733   -7.312598   -0.009449
   9 H     1.0000    0     1.008    0.058997   -3.097752    0.029121
  10 C     6.0000    0    12.011   -7.760557    1.032943   -0.200368
  11 C     6.0000    0    12.011   -9.856906    1.261147    1.397641
  12 C     6.0000    0    12.011  -11.459507    3.332797    1.271313
  13 C     6.0000    0    12.011  -11.028309    5.268122   -0.489080
  14 C     6.0000    0    12.011   -8.944679    5.037292   -2.116455
  15 C     6.0000    0    12.011   -7.351545    2.964905   -1.964333
  16 C     6.0000    0    12.011   -2.082932    1.414347    0.129616
  17 C     6.0000    0    12.011   -2.749060    3.235154    1.936535
  18 C     6.0000    0    12.011   -1.433338    5.488747    2.123807
  19 C     6.0000    0    12.011    0.593242    5.967207    0.484469
  20 C     6.0000    0    12.011    1.288793    4.164106   -1.322222
  21 C     6.0000    0    12.011   -0.042878    1.911893   -1.482018
  22 H     1.0000    0     1.008  -10.220659   -0.200953    2.794773
  23 H     1.0000    0     1.008  -12.252380    6.874427   -0.588820
  24 H     1.0000    0     1.008    1.608289    7.711122    0.614577
  25 H     1.0000    0     1.008   -8.585763    6.501943   -3.512585
  26 H     1.0000    0     1.008   -5.764780    2.830281   -3.260174
  27 H     1.0000    0     1.008   -4.315227    2.868529    3.207640
  28 H     1.0000    0     1.008   -1.956547    6.882458    3.533958
  29 C     6.0000    0    12.011    3.381948    4.650748   -2.868415
  30 H     1.0000    0     1.008    0.480898    0.526062   -2.902279
  31 N     7.0000    0    14.007    6.183184    5.188980   -4.355044
  32 N     7.0000    0    14.007  -13.038770    3.455534    2.528038
  33 H     1.0000    0     1.008  -13.071765    1.889480    3.683435
  34 H     1.0000    0     1.008  -12.878729    5.061405    3.616218

--------------------------------
INTERNAL COORDINATES (ANGSTROEM)
--------------------------------
 C      0   0   0     0.000000000000     0.00000000     0.00000000
 C      1   0   0     1.412471306753     0.00000000     0.00000000
 C      1   2   0     1.400885790741   118.37108722     0.00000000
 C      3   1   2     1.389808628013   121.73568437   359.24784316
 C      4   3   1     1.392065106416   119.71747910   359.40952466
 C      5   4   3     1.389533936757   119.41983690     0.93410637
 H      3   1   2     1.086773771951   118.48740239   181.13451077
 H      4   3   1     1.086401872881   119.88559356   180.29379368
 H      5   4   3     1.086114573744   120.57002567   180.31119035
 H      6   5   4     1.086894674106   119.73677161   177.76120419
 C      1   2   3     1.479758188523   122.79732277   181.78542417
 C     11   1   2     1.400110106420   120.73098693   226.36171858
 C     12  11   1     1.387617598260   121.55268417   180.93266937
 C     13  12  11     1.403108122313   120.61351441     0.39346263
 C     14  13  12     1.404380006800   118.11978240     0.30883234
 C     15  14  13     1.385596156209   120.72469007   359.40023269
 C      2   1   3     1.481541875311   122.66270201   184.09867276
 C     17   2   1     1.402471569516   121.07832557    48.95875840
 C     18  17   2     1.384471153546   120.94311685   177.98867820
 C     19  18  17     1.402407245596   119.72263292     0.10100076
 C     20  19  18     1.399981269196   120.02871332   359.62010146
 C     21  20  19     1.387145739315   119.58072473     0.19173638
 H     12  11   1     1.087330866434   119.31190207     2.07049405
 H     14  13  12     1.069999902477   120.94014906   180.30896237
 H     20  19  18     1.069996900790   119.98591264   179.61926313
 H     15  14  13     1.087481884217   119.45387404   179.23626498
 H     16  15  14     1.086445246158   119.04339760   179.44659251
 H     18  17   2     1.084878213488   119.46312729   358.13542189
 H     19  18  17     1.085097707905   120.42217635   180.30381987
 C     21  20  19     1.400954202321   118.77890607   182.46204105
 H     22  21  20     1.086040006768   119.51839923   179.11404255
 N     30  21  20     1.702164830738   171.57967251    69.13878515
 N     13  12  11     1.069997480137   119.69319273   180.39367185
 H     33  13  12     1.030001882571   109.47153229     0.00000000
 H     33  13  12     1.030003468829   109.47129877   120.00005684

---------------------------
INTERNAL COORDINATES (A.U.)
---------------------------
 C      0   0   0     0.000000000000     0.00000000     0.00000000
 C      1   0   0     2.669183941785     0.00000000     0.00000000
 C      1   2   0     2.647290489402   118.37108722     0.00000000
 C      3   1   2     2.626357685506   121.73568437   359.24784316
 C      4   3   1     2.630621811714   119.71747910   359.40952466
 C      5   4   3     2.625838594261   119.41983690     0.93410637
 H      3   1   2     2.053704798515   118.48740239   181.13451077
 H      4   3   1     2.053002011125   119.88559356   180.29379368
 H      5   4   3     2.052459094438   120.57002567   180.31119035
 H      6   5   4     2.053933270478   119.73677161   177.76120419
 C      1   2   3     2.796337720735   122.79732277   181.78542417
 C     11   1   2     2.645824658470   120.73098693   226.36171858
 C     12  11   1     2.622217239320   121.55268417   180.93266937
 C     13  12  11     2.651490087452   120.61351441     0.39346263
 C     14  13  12     2.653893600807   118.11978240     0.30883234
 C     15  14  13     2.618397267448   120.72469007   359.40023269
 C      2   1   3     2.799708400274   122.66270201   184.09867276
 C     17   2   1     2.650287176995   121.07832557    48.95875840
 C     18  17   2     2.616271320515   120.94311685   177.98867820
 C     19  18  17     2.650165622403   119.72263292     0.10100076
 C     20  19  18     2.645581191400   120.02871332   359.62010146
 C     21  20  19     2.621325555141   119.58072473     0.19173638
 H     12  11   1     2.054757554519   119.31190207     2.07049405
 H     14  13  12     2.022006779003   120.94014906   180.30896237
 H     20  19  18     2.022001106637   119.98591264   179.61926313
 H     15  14  13     2.055042936771   119.45387404   179.23626498
 H     16  15  14     2.053083974740   119.04339760   179.44659251
 H     18  17   2     2.050122712149   119.46312729   358.13542189
 H     19  18  17     2.050537496486   120.42217635   180.30381987
 C     21  20  19     2.647419768552   118.77890607   182.46204105
 H     22  21  20     2.052318183273   119.51839923   179.11404255
 N     30  21  20     3.216625364887   171.57967251    69.13878515
 N     13  12  11     2.022002201445   119.69319273   180.39367185
 H     33  13  12     1.946421475483   109.47153229     0.00000000
 H     33  13  12     1.946424473076   109.47129877   120.00005684

---------------------
BASIS SET INFORMATION
---------------------
There are 3 groups of distinct atoms

 Group   1 Type C   : 7s4p1d contracted to 3s2p1d pattern {511/31/1}
 Group   2 Type H   : 4s1p contracted to 2s1p pattern {31/1}
 Group   3 Type N   : 7s4p1d contracted to 3s2p1d pattern {511/31/1}

Atom   0C    basis set group =>   1
Atom   1C    basis set group =>   1
Atom   2C    basis set group =>   1
Atom   3C    basis set group =>   1
Atom   4C    basis set group =>   1
Atom   5C    basis set group =>   1
Atom   6H    basis set group =>   2
Atom   7H    basis set group =>   2
Atom   8H    basis set group =>   2
Atom   9H    basis set group =>   2
Atom  10C    basis set group =>   1
Atom  11C    basis set group =>   1
Atom  12C    basis set group =>   1
Atom  13C    basis set group =>   1
Atom  14C    basis set group =>   1
Atom  15C    basis set group =>   1
Atom  16C    basis set group =>   1
Atom  17C    basis set group =>   1
Atom  18C    basis set group =>   1
Atom  19C    basis set group =>   1
Atom  20C    basis set group =>   1
Atom  21C    basis set group =>   1
Atom  22H    basis set group =>   2
Atom  23H    basis set group =>   2
Atom  24H    basis set group =>   2
Atom  25H    basis set group =>   2
Atom  26H    basis set group =>   2
Atom  27H    basis set group =>   2
Atom  28H    basis set group =>   2
Atom  29C    basis set group =>   1
Atom  30H    basis set group =>   2
Atom  31N    basis set group =>   3
Atom  32N    basis set group =>   3
Atom  33H    basis set group =>   2
Atom  34H    basis set group =>   2
---------------------------------
AUXILIARY/J BASIS SET INFORMATION
---------------------------------
There are 3 groups of distinct atoms

 Group   1 Type C   : 12s5p4d2f1g contracted to 12s5p4d2f1g pattern {111111111111/11111/1111/11/1}
 Group   2 Type H   : 5s2p1d contracted to 5s2p1d pattern {11111/11/1}
 Group   3 Type N   : 12s5p4d2f1g contracted to 12s5p4d2f1g pattern {111111111111/11111/1111/11/1}

Atom   0C    basis set group =>   1
Atom   1C    basis set group =>   1
Atom   2C    basis set group =>   1
Atom   3C    basis set group =>   1
Atom   4C    basis set group =>   1
Atom   5C    basis set group =>   1
Atom   6H    basis set group =>   2
Atom   7H    basis set group =>   2
Atom   8H    basis set group =>   2
Atom   9H    basis set group =>   2
Atom  10C    basis set group =>   1
Atom  11C    basis set group =>   1
Atom  12C    basis set group =>   1
Atom  13C    basis set group =>   1
Atom  14C    basis set group =>   1
Atom  15C    basis set group =>   1
Atom  16C    basis set group =>   1
Atom  17C    basis set group =>   1
Atom  18C    basis set group =>   1
Atom  19C    basis set group =>   1
Atom  20C    basis set group =>   1
Atom  21C    basis set group =>   1
Atom  22H    basis set group =>   2
Atom  23H    basis set group =>   2
Atom  24H    basis set group =>   2
Atom  25H    basis set group =>   2
Atom  26H    basis set group =>   2
Atom  27H    basis set group =>   2
Atom  28H    basis set group =>   2
Atom  29C    basis set group =>   1
Atom  30H    basis set group =>   2
Atom  31N    basis set group =>   3
Atom  32N    basis set group =>   3
Atom  33H    basis set group =>   2
Atom  34H    basis set group =>   2
---------------------------------
AUXILIARY/C BASIS SET INFORMATION
---------------------------------
There are 3 groups of distinct atoms

 Group   1 Type C   : 8s6p5d3f contracted to 6s5p4d1f pattern {311111/21111/2111/3}
 Group   2 Type H   : 4s3p2d contracted to 3s2p1d pattern {211/21/2}
 Group   3 Type N   : 8s6p5d3f contracted to 6s5p4d1f pattern {311111/21111/2111/3}

Atom   0C    basis set group =>   1
Atom   1C    basis set group =>   1
Atom   2C    basis set group =>   1
Atom   3C    basis set group =>   1
Atom   4C    basis set group =>   1
Atom   5C    basis set group =>   1
Atom   6H    basis set group =>   2
Atom   7H    basis set group =>   2
Atom   8H    basis set group =>   2
Atom   9H    basis set group =>   2
Atom  10C    basis set group =>   1
Atom  11C    basis set group =>   1
Atom  12C    basis set group =>   1
Atom  13C    basis set group =>   1
Atom  14C    basis set group =>   1
Atom  15C    basis set group =>   1
Atom  16C    basis set group =>   1
Atom  17C    basis set group =>   1
Atom  18C    basis set group =>   1
Atom  19C    basis set group =>   1
Atom  20C    basis set group =>   1
Atom  21C    basis set group =>   1
Atom  22H    basis set group =>   2
Atom  23H    basis set group =>   2
Atom  24H    basis set group =>   2
Atom  25H    basis set group =>   2
Atom  26H    basis set group =>   2
Atom  27H    basis set group =>   2
Atom  28H    basis set group =>   2
Atom  29C    basis set group =>   1
Atom  30H    basis set group =>   2
Atom  31N    basis set group =>   3
Atom  32N    basis set group =>   3
Atom  33H    basis set group =>   2
Atom  34H    basis set group =>   2
------------------------------------------------------------------------------
                             ORCA STARTUP CALCULATIONS
                           -- RI-GTO INTEGRALS CHOSEN --
------------------------------------------------------------------------------
------------------------------------------------------------------------------
                   ___                                                        
                  /   \      - P O W E R E D   B Y -                         
                 /     \                                                     
                 |  |  |   _    _      __       _____    __    __             
                 |  |  |  | |  | |    /  \     |  _  \  |  |  /  |          
                  \  \/   | |  | |   /    \    | | | |  |  | /  /          
                 / \  \   | |__| |  /  /\  \   | |_| |  |  |/  /          
                |  |  |   |  __  | /  /__\  \  |    /   |      \           
                |  |  |   | |  | | |   __   |  |    \   |  |\   \          
                \     /   | |  | | |  |  |  |  | |\  \  |  | \   \       
                 \___/    |_|  |_| |__|  |__|  |_| \__\ |__|  \__/        
                                                                              
                      - O R C A' S   B I G   F R I E N D -                    
                                      &                                       
                       - I N T E G R A L  F E E D E R -                       
                                                                              
 v1 FN, 2020, v2 2021, v3 2022-2024                                           
------------------------------------------------------------------------------


----------------------
SHARK INTEGRAL PACKAGE
----------------------

Number of atoms                             ...     35
Number of basis functions                   ...    364
Number of shells                            ...    168
Maximum angular momentum                    ...      2
Integral batch strategy                     ... SHARK/LIBINT Hybrid
RI-J (if used) integral strategy            ... SPLIT-RIJ (Revised 2003 algorithm where possible)
Printlevel                                  ...      1
Contraction scheme used                     ... SEGMENTED contraction
Prescreening option                         ... SCHWARTZ
   Thresh                                   ... 2.500e-11
   Tcut                                     ... 2.500e-12
   Tpresel                                  ... 2.500e-12 
Coulomb Range Separation                    ... NOT USED
Exchange Range Separation                   ... NOT USED
Multipole approximations                    ... NOT USED
Finite Nucleus Model                        ... NOT USED
CABS basis                                  ... NOT available
Auxiliary Coulomb fitting basis             ... AVAILABLE
   # of basis functions in Aux-J            ...   1694
   # of shells in Aux-J                     ...    616
   Maximum angular momentum in Aux-J        ...      4
Auxiliary J/K fitting basis                 ... NOT available
Auxiliary Correlation fitting basis         ... AVAILABLE
   # of basis functions in Aux-C            ...   1204
   # of shells in Aux-C                     ...    420
   Maximum angular momentum in Aux-C        ...      3
Auxiliary 'external' fitting basis          ... NOT available

Checking pre-screening integrals            ... done (  0.0 sec) Dimension = 168
Check shell pair data                       ... done (  0.0 sec)
Shell pair information
Shell pair cut-off parameter TPreSel        ...   2.5e-12
Total number of shell pairs                 ...     14196
Shell pairs after pre-screening             ...     11049
Total number of primitive shell pairs       ...     52318
Primitive shell pairs kept                  ...     26199
          la=0 lb=0:   3307 shell pairs
          la=1 lb=0:   4083 shell pairs
          la=1 lb=1:   1296 shell pairs
          la=2 lb=0:   1364 shell pairs
          la=2 lb=1:    857 shell pairs
          la=2 lb=2:    142 shell pairs

Calculating one electron integrals          ... done (  0.0 sec)
Calculating RI/J V-Matrix + Cholesky decomp.... done (  0.1 sec)
Calculating RI/C V-Matrix + Cholesky decomp.... done (  0.0 sec)
Calculating Nuclear repulsion               ... done (  0.0 sec) ENN=   1463.681926269001 Eh

Diagonalization of the overlap matrix:
Smallest eigenvalue                        ... 2.232e-04
Time for diagonalization                   ...    0.011 sec
Threshold for overlap eigenvalues          ... 1.000e-07
Number of eigenvalues below threshold      ... 0
Time for construction of square roots      ...    0.005 sec
Total time needed                          ...    0.017 sec

-------------------
DFT GRID GENERATION
-------------------

General Integration Accuracy     IntAcc      ... 4.388
Radial Grid Type                 RadialGrid  ... OptM3 with GC (2021)
Angular Grid (max. ang.)         AngularGrid ... 4 (Lebedev-302)
Angular grid pruning method      GridPruning ... 4 (adaptive)
Weight generation scheme         WeightScheme... mBecke (2022)
Basis function cutoff            BFCut       ... 1.0000e-11
Integration weight cutoff        WCut        ... 1.0000e-14
Partially contracted basis set               ... off
Rotationally invariant grid construction     ... off
Angular grids for H and He will be reduced by one unit

Total number of grid points                  ...   169974
Total number of batches                      ...     2672
Average number of points per batch           ...       63
Average number of grid points per atom       ...     4856

--------------------
COSX GRID GENERATION
--------------------

GRIDX 1
-------
General Integration Accuracy     IntAcc      ... 3.816
Radial Grid Type                 RadialGrid  ... OptM3 with GC (2021)
Angular Grid (max. ang.)         AngularGrid ... 1 (Lebedev-50)
Angular grid pruning method      GridPruning ... 4 (adaptive)
Weight generation scheme         WeightScheme... mBecke (2022)
Basis function cutoff            BFCut       ... 1.0000e-11
Integration weight cutoff        WCut        ... 1.0000e-14
Partially contracted basis set               ... on
Rotationally invariant grid construction     ... off
Angular grids for H and He will be reduced by one unit

Total number of grid points                  ...    21580
Total number of batches                      ...      184
Average number of points per batch           ...      117
Average number of grid points per atom       ...      617
UseSFitting                                  ... on

GRIDX 2
-------
General Integration Accuracy     IntAcc      ... 4.020
Radial Grid Type                 RadialGrid  ... OptM3 with GC (2021)
Angular Grid (max. ang.)         AngularGrid ... 2 (Lebedev-110)
Angular grid pruning method      GridPruning ... 4 (adaptive)
Weight generation scheme         WeightScheme... mBecke (2022)
Basis function cutoff            BFCut       ... 1.0000e-11
Integration weight cutoff        WCut        ... 1.0000e-14
Partially contracted basis set               ... on
Rotationally invariant grid construction     ... off
Angular grids for H and He will be reduced by one unit

Total number of grid points                  ...    47197
Total number of batches                      ...      389
Average number of points per batch           ...      121
Average number of grid points per atom       ...     1348
UseSFitting                                  ... on

GRIDX 3
-------
General Integration Accuracy     IntAcc      ... 4.338
Radial Grid Type                 RadialGrid  ... OptM3 with GC (2021)
Angular Grid (max. ang.)         AngularGrid ... 3 (Lebedev-194)
Angular grid pruning method      GridPruning ... 4 (adaptive)
Weight generation scheme         WeightScheme... mBecke (2022)
Basis function cutoff            BFCut       ... 1.0000e-11
Integration weight cutoff        WCut        ... 1.0000e-14
Partially contracted basis set               ... on
Rotationally invariant grid construction     ... off
Angular grids for H and He will be reduced by one unit

Total number of grid points                  ...   103388
Total number of batches                      ...      826
Average number of points per batch           ...      125
Average number of grid points per atom       ...     2954
UseSFitting                                  ... on
Initializing property integral containers    ... done (  0.0 sec)

SHARK setup successfully completed in   3.4 seconds

Maximum memory used throughout the entire STARTUP-calculation: 75.4 MB
------------------------------------------------------------------------------
                          ORCA RELATIVISTIC HAMILTONIAN
------------------------------------------------------------------------------

Relativistic Method            ... DKH
Order of DKH treatment         ...   2
Treatment of potential         ... V(e,N)
Eps parameter for DKH          ...   0.00000000010000
Nucleus model                  ... Point Nucleus
Speed of light used            ... 137.03598950000000


            ************************************************
            *        DOUGLAS-KROLL-HESS HAMILTONIAN        *
            *   Programmed by FN according to literature   *
            *        procedures. Special thanks to         *
            *       B.A. Hess, M. Reiher and A. Wolf       *
            *     University Erlangen-Nuernberg/Bonn       *
            ************************************************

Uncontracting the basis (first version)        ... done
Number of contracted basis functions           ...  364
Number of uncontracted basis functions         ...  602
Initializing the DKH file                      ... done
One center approximation for DKH is active
Finding unique atoms                      ... 3 atom types
 ATOMIC NUMBER   6
          ... doing integrals
          ... Computing the DKH transformation
          ... Transforming V and pVp to p**2 space
          ... First transformation of V and pVp
          ... Second transformation of Veff
          ... Adding kinetic energy
          ... Back transformation of Veff to r-space
          ... Recontracting the H-matrix
          ... Computing the DKH correction to the H-matrix
          ... adding submatrics to 19 actual atoms
 ATOMIC NUMBER   1
          ... doing integrals
          ... Computing the DKH transformation
          ... Transforming V and pVp to p**2 space
          ... First transformation of V and pVp
          ... Second transformation of Veff
          ... Adding kinetic energy
          ... Back transformation of Veff to r-space
          ... Recontracting the H-matrix
          ... Computing the DKH correction to the H-matrix
          ... adding submatrics to 14 actual atoms
 ATOMIC NUMBER   7
          ... doing integrals
          ... Computing the DKH transformation
          ... Transforming V and pVp to p**2 space
          ... First transformation of V and pVp
          ... Second transformation of Veff
          ... Adding kinetic energy
          ... Back transformation of Veff to r-space
          ... Recontracting the H-matrix
          ... Computing the DKH correction to the H-matrix
          ... adding submatrics to 2 actual atoms
Storing DKH matrices                           ... done
Getting S**(-1/2)                              ... done
Reading the original H-matrix                  ... done
Adding DKH correction to the H-matrix          ... done
Storing the new modified H-matrix              ... done

Maximum memory used throughout the entire REL-calculation: 74.5 MB
-------------------------------------------------------------------------------
                                 ORCA GUESS
                   Start orbitals & Density for SCF / CASSCF
-------------------------------------------------------------------------------

------------
SCF SETTINGS
------------
Hamiltonian:
 Density Functional     Method          .... DFT(GTOs)
 Exchange Functional    Exchange        .... PBE
   PBE kappa parameter   XKappa         ....  0.804000
   PBE mue parameter    XMuePBE         ....  0.219520
 Correlation Functional Correlation     .... PBE
   PBE beta parameter  CBetaPBE         ....  0.066725
 LDA part of GGA corr.  LDAOpt          .... PW91-LDA
 Gradients option       PostSCFGGA      .... off
 Hybrid DFT is turned on
   Fraction HF Exchange ScalHFX         ....  0.250000
   Scaling of DF-GGA-X  ScalDFX         ....  0.750000
   Scaling of DF-GGA-C  ScalDFC         ....  1.000000
   Scaling of DF-LDA-C  ScalLDAC        ....  1.000000
   Perturbative correction              ....  0.000000
   NL short-range parameter             ....  6.900000
 RI-approximation to the Coulomb term is turned on
   Number of AuxJ basis functions       .... 1694
   RIJ-COSX (HFX calculated with COS-X)).... on

Relativistic Settings:
 Scalar relativistic method             .... Douglas-Kroll-Hess
 Order of DKH procedure    Order        ....    2
 Mode of DKH-treatment                  .... V=V(e,N)
 Speed of light used       Velit        ....       137.035989
 Cutoff-constant           Eps          ....            1e-10 


General Settings:
 Integral files         IntName         .... n1_CNNH2
 Hartree-Fock type      HFTyp           .... RHF
 Total Charge           Charge          ....    0
 Multiplicity           Mult            ....    1
 Number of Electrons    NEL             ....  142
 Basis Dimension        Dim             ....  364
 Nuclear Repulsion      ENuc            ....   1463.6819262690 Eh

Convergence Acceleration:
 AO-DIIS                CNVDIIS         .... on
   Start iteration      DIISMaxIt       ....    12
   Startup error        DIISStart       ....  0.200000
   # of expansion vecs  DIISMaxEq       ....     5
   Bias factor          DIISBfac        ....   1.050
   Max. coefficient     DIISMaxC        ....  10.000
 MO-DIIS                CNVKDIIS        .... off
 Trust-Rad. Augm. Hess. CNVTRAH         .... auto
   Auto Start mean grad. ratio tolernc. ....  1.125000
   Auto Start start iteration           ....    50
   Auto Start num. interpolation iter.  ....    10
   Max. Number of Micro iterations      ....    24
   Max. Number of Macro iterations      .... Maxiter - #DIIS iter
   Number of Davidson start vectors     ....     2
   Converg. threshold    (grad. norm)   ....   1.000e-05
   Grad. Scal. Fac. for Micro threshold ....   0.100
   Minimum threshold for Micro iter.    ....   1.000e-02
   NR start threshold (gradient norm)   ....   1.000e-04
   Initial trust radius                 ....   0.400
   Minimum AH scaling param. (alpha)    ....   1.000
   Maximum AH scaling param. (alpha)    .... 1000.000
   Quad. conv. algorithm                .... NR
   White noise on init. David. guess    .... on
   Maximum white noise                  ....   0.010
   Pseudo random numbers                .... off
   Inactive MOs                         .... canonical
   Orbital update algorithm             .... Taylor
   Preconditioner                       .... Diag
   Full preconditioner red. dimension   ....   250
 SOSCF                  CNVSOSCF        .... on
   Start iteration      SOSCFMaxIt      ....   150
   Startup grad/error   SOSCFStart      ....  0.003300
   Hessian update       SOSCFHessUp     .... L-BFGS
 Level Shifting         CNVShift        .... on
   Level shift para.    LevelShift      ....    0.2500
   Turn off err/grad.   ShiftErr        ....    0.0010
 Zerner damping         CNVZerner       .... off
 Static damping         CNVDamp         .... on
   Fraction old density DampFac         ....    0.7000
   Max. Damping (<1)    DampMax         ....    0.9800
   Min. Damping (>=0)   DampMin         ....    0.0000
   Turn off err/grad.   DampErr         ....    0.1000

SCF Procedure:
 Maximum # iterations   MaxIter         ....   100
 SCF integral mode      SCFMode         .... Direct
   Integral package                     .... SHARK and LIBINT hybrid scheme
 Reset frequency        DirectResetFreq ....    20
 Integral Threshold     Thresh          ....  2.500e-11 Eh
 Primitive CutOff       TCut            ....  2.500e-12 Eh

Convergence Tolerance:
 Convergence Check Mode ConvCheckMode   .... Total+1el-Energy
 Convergence forced     ConvForced      .... 0
 Energy Change          TolE            ....  1.000e-08 Eh
 1-El. energy change                    ....  1.000e-05 Eh
 Orbital Gradient       TolG            ....  1.000e-05
 Orbital Rotation angle TolX            ....  1.000e-05
 DIIS Error             TolErr          ....  5.000e-07

------------------------------
INITIAL GUESS: MODEL POTENTIAL
------------------------------
Loading DKH relativistic densities                 ... done
Calculating cut-offs                               ... done
Initializing the effective Hamiltonian             ... done
Setting up the integral package (SHARK)            ... done
Starting the Coulomb interaction                   ... done (   0.5 sec)
Making the grid                                    ... done (   0.4 sec)
Mapping shells                                     ... done
Starting the XC term evaluation                    ... done (   0.4 sec)
  promolecular density results
     # of electrons  =    142.003051859
     EX              =   -114.455901206
     EC              =     -4.728603477
     EX+EC           =   -119.184504683
Transforming the Hamiltonian                       ... done (   0.0 sec)
Diagonalizing the Hamiltonian                      ... done (   0.0 sec)
Back transforming the eigenvectors                 ... done (   0.0 sec)
Now organizing SCF variables                       ... done
                      ------------------
                      INITIAL GUESS DONE (   1.3 sec)
                      ------------------
             **** ENERGY FILE WAS UPDATED (n1_CNNH2.en.tmp) ****
Finished Guess after   1.4 sec
Maximum memory used throughout the entire GUESS-calculation: 42.3 MB

-------------------------------------------------------------------------------------------
                                      ORCA LEAN-SCF
                              memory conserving SCF solver
-------------------------------------------------------------------------------------------

----------------------------------------D-I-I-S--------------------------------------------
Iteration    Energy (Eh)           Delta-E    RMSDP     MaxDP     DIISErr   Damp  Time(sec)
-------------------------------------------------------------------------------------------
               ***  Starting incremental Fock matrix formation  ***
    1    -839.7937969861272904     0.00e+00  2.84e-03  9.25e-02  2.71e-01  0.700  16.8
Warning: op=0 Small HOMO/LUMO gap (   0.046) - skipping pre-diagonalization
         Will do a full diagonalization
    2    -840.0075716437172559    -2.14e-01  1.91e-03  5.48e-02  1.38e-01  0.700   5.4
                               ***Turning on AO-DIIS***
    3    -840.0942965095628097    -8.67e-02  9.47e-04  2.00e-02  5.47e-02  0.700   7.2
    4    -840.1468719300196426    -5.26e-02  1.84e-03  4.13e-02  3.02e-02  0.000   8.5
    5    -840.2582177263157064    -1.11e-01  2.27e-04  9.74e-03  1.65e-02  0.000   7.6
                              *** Initializing SOSCF ***
---------------------------------------S-O-S-C-F--------------------------------------
Iteration    Energy (Eh)           Delta-E    RMSDP     MaxDP     MaxGrad    Time(sec)
--------------------------------------------------------------------------------------
    6    -840.2591383037643027    -9.21e-04  7.88e-05  2.62e-03  1.21e-03     4.2
               *** Restarting incremental Fock matrix formation ***
    7    -840.2592207102316024    -8.24e-05  5.54e-05  1.48e-03  3.48e-04    14.9
    8    -840.2592224470522524    -1.74e-06  4.04e-05  2.05e-03  6.36e-04    12.1
    9    -840.2592151217190803     7.33e-06  4.07e-05  1.75e-03  1.70e-03     7.8
   10    -840.2592180298479434    -2.91e-06  4.78e-05  1.70e-03  5.70e-04    10.6
   11    -840.2592260798778625    -8.05e-06  2.79e-05  6.79e-04  2.84e-04    10.2
   12    -840.2592288063160595    -2.73e-06  1.26e-05  3.69e-04  1.26e-04     7.2
   13    -840.2592298743093124    -1.07e-06  7.86e-06  1.61e-04  1.10e-04     9.1
   14    -840.2592300819296725    -2.08e-07  4.24e-06  1.08e-04  5.80e-05     8.7
   15    -840.2592302472216943    -1.65e-07  2.20e-06  7.05e-05  2.51e-05     7.6
   16    -840.2592302490907059    -1.87e-09  8.19e-07  3.60e-05  1.26e-05     4.3
                 **** Energy Check signals convergence ****

               *****************************************************
               *                     SUCCESS                       *
               *           SCF CONVERGED AFTER  16 CYCLES          *
               *****************************************************

Recomputing exchange energy using gridx3       ... done (   24.153 sec)
Old exchange energy                            :    -29.084771280 Eh
New exchange energy                            :    -29.084710480 Eh
Exchange energy change after final integration :      0.000060800 Eh
Total energy after final integration           :   -840.259169449 Eh
             **** ENERGY FILE WAS UPDATED (n1_CNNH2.en.tmp) ****

----------------
TOTAL SCF ENERGY
----------------

Total Energy       :       -840.25916944923438 Eh          -22864.61442 eV

Components:
Nuclear Repulsion  :       1463.68192626900145 Eh           39828.81007 eV
Electronic Energy  :      -2303.94115651809261 Eh          -62693.42614 eV
One Electron Energy:      -4041.65669112200339 Eh         -109979.06979 eV
Two Electron Energy:       1737.71553460391101 Eh           47285.64365 eV

Virial components:
Potential Energy   :      -1673.23954460613118 Eh          -45531.16277 eV
Kinetic Energy     :        832.98037515689680 Eh           22666.54835 eV
Virial Ratio       :          2.00873825423674

DFT components:
N(Alpha)           :       70.999983759692 electrons
N(Beta)            :       70.999983759692 electrons
N(Total)           :      141.999967519383 electrons
E(X)               :      -87.099214453366 Eh       
E(C)               :       -4.754315078397 Eh       
E(XC)              :      -91.853529531764 Eh       

---------------
SCF CONVERGENCE
---------------

  Last Energy change         ...    1.8690e-09  Tolerance :   1.0000e-08
  Last MAX-Density change    ...    3.5970e-05  Tolerance :   1.0000e-07
  Last RMS-Density change    ...    8.1902e-07  Tolerance :   5.0000e-09
  Last DIIS Error            ...    1.2092e-03  Tolerance :   5.0000e-07
  Last Orbital Gradient      ...    1.2602e-05  Tolerance :   1.0000e-05
  Last Orbital Rotation      ...    1.4899e-05  Tolerance :   1.0000e-05


----------------
ORBITAL ENERGIES
----------------

  NO   OCC          E(Eh)            E(eV) 
   0   2.0000     -14.464891      -393.6097 
   1   2.0000     -14.420875      -392.4119 
   2   2.0000     -10.343668      -281.4655 
   3   2.0000     -10.289213      -279.9837 
   4   2.0000     -10.275465      -279.6096 
   5   2.0000     -10.274029      -279.5705 
   6   2.0000     -10.272166      -279.5198 
   7   2.0000     -10.268482      -279.4196 
   8   2.0000     -10.266617      -279.3689 
   9   2.0000     -10.265884      -279.3489 
  10   2.0000     -10.264854      -279.3209 
  11   2.0000     -10.262924      -279.2684 
  12   2.0000     -10.253318      -279.0070 
  13   2.0000     -10.252845      -278.9941 
  14   2.0000     -10.252169      -278.9757 
  15   2.0000     -10.251446      -278.9560 
  16   2.0000     -10.250991      -278.9436 
  17   2.0000     -10.240533      -278.6591 
  18   2.0000     -10.228436      -278.3299 
  19   2.0000     -10.224717      -278.2287 
  20   2.0000     -10.223422      -278.1935 
  21   2.0000      -1.088465       -29.6186 
  22   2.0000      -0.920348       -25.0439 
  23   2.0000      -0.895428       -24.3658 
  24   2.0000      -0.859365       -23.3845 
  25   2.0000      -0.831253       -22.6196 
  26   2.0000      -0.806994       -21.9594 
  27   2.0000      -0.797652       -21.7052 
  28   2.0000      -0.760332       -20.6897 
  29   2.0000      -0.755047       -20.5459 
  30   2.0000      -0.737692       -20.0736 
  31   2.0000      -0.730504       -19.8780 
  32   2.0000      -0.683230       -18.5916 
  33   2.0000      -0.676556       -18.4100 
  34   2.0000      -0.662775       -18.0350 
  35   2.0000      -0.637292       -17.3416 
  36   2.0000      -0.625854       -17.0304 
  37   2.0000      -0.619556       -16.8590 
  38   2.0000      -0.588495       -16.0138 
  39   2.0000      -0.560329       -15.2473 
  40   2.0000      -0.556756       -15.1501 
  41   2.0000      -0.528399       -14.3785 
  42   2.0000      -0.523664       -14.2496 
  43   2.0000      -0.510473       -13.8907 
  44   2.0000      -0.508388       -13.8339 
  45   2.0000      -0.493803       -13.4371 
  46   2.0000      -0.480662       -13.0795 
  47   2.0000      -0.472944       -12.8695 
  48   2.0000      -0.464524       -12.6403 
  49   2.0000      -0.450997       -12.2723 
  50   2.0000      -0.444518       -12.0959 
  51   2.0000      -0.437973       -11.9178 
  52   2.0000      -0.421925       -11.4812 
  53   2.0000      -0.414562       -11.2808 
  54   2.0000      -0.405921       -11.0457 
  55   2.0000      -0.399346       -10.8668 
  56   2.0000      -0.391853       -10.6629 
  57   2.0000      -0.379078       -10.3152 
  58   2.0000      -0.373992       -10.1768 
  59   2.0000      -0.365858        -9.9555 
  60   2.0000      -0.363519        -9.8919 
  61   2.0000      -0.352387        -9.5890 
  62   2.0000      -0.335801        -9.1376 
  63   2.0000      -0.326168        -8.8755 
  64   2.0000      -0.301003        -8.1907 
  65   2.0000      -0.286788        -7.8039 
  66   2.0000      -0.266390        -7.2488 
  67   2.0000      -0.254896        -6.9361 
  68   2.0000      -0.250214        -6.8087 
  69   2.0000      -0.237777        -6.4703 
  70   2.0000      -0.206567        -5.6210 
  71   0.0000      -0.099179        -2.6988 
  72   0.0000      -0.072581        -1.9750 
  73   0.0000      -0.048249        -1.3129 
  74   0.0000      -0.027455        -0.7471 
  75   0.0000      -0.006191        -0.1685 
  76   0.0000       0.005290         0.1439 
  77   0.0000       0.017323         0.4714 
  78   0.0000       0.020483         0.5574 
  79   0.0000       0.045242         1.2311 
  80   0.0000       0.052207         1.4206 
  81   0.0000       0.075243         2.0475 
*Only the first 10 virtual orbitals were printed.

                    ********************************
                    * MULLIKEN POPULATION ANALYSIS *
                    ********************************

-----------------------
MULLIKEN ATOMIC CHARGES
-----------------------
   0 C :    0.050467
   1 C :    0.039726
   2 C :   -0.044954
   3 C :   -0.000956
   4 C :   -0.005134
   5 C :   -0.041480
   6 H :    0.012063
   7 H :    0.020573
   8 H :    0.022206
   9 H :    0.017752
  10 C :   -0.029566
  11 C :   -0.129103
  12 C :   -0.023669
  13 C :   -0.117722
  14 C :   -0.001063
  15 C :   -0.022423
  16 C :   -0.052871
  17 C :    0.057570
  18 C :   -0.017090
  19 C :    0.043732
  20 C :   -0.056688
  21 C :    0.018953
  22 H :   -0.018411
  23 H :   -0.015218
  24 H :    0.026141
  25 H :    0.013468
  26 H :    0.004899
  27 H :    0.027572
  28 H :    0.028874
  29 C :    0.002184
  30 H :    0.027657
  31 N :   -0.188005
  32 N :    0.094655
  33 H :    0.105586
  34 H :    0.150276
Sum of atomic charges:   -0.0000000

--------------------------------
MULLIKEN REDUCED ORBITAL CHARGES
--------------------------------
  0 C s       :     3.073711  s :     3.073711
      pz      :     0.979624  p :     2.833576
      px      :     0.988177
      py      :     0.865776
      dz2     :     0.003160  d :     0.042246
      dxz     :     0.006470
      dyz     :     0.006011
      dx2y2   :     0.013455
      dxy     :     0.013150

  1 C s       :     3.066981  s :     3.066981
      pz      :     1.004223  p :     2.851534
      px      :     0.989486
      py      :     0.857826
      dz2     :     0.003158  d :     0.041759
      dxz     :     0.006519
      dyz     :     0.005541
      dx2y2   :     0.013000
      dxy     :     0.013540

  2 C s       :     3.250373  s :     3.250373
      pz      :     0.982901  p :     2.759785
      px      :     0.834368
      py      :     0.942516
      dz2     :     0.002623  d :     0.034796
      dxz     :     0.002358
      dyz     :     0.006728
      dx2y2   :     0.012774
      dxy     :     0.010313

  3 C s       :     3.177488  s :     3.177488
      pz      :     0.980370  p :     2.787995
      px      :     0.932075
      py      :     0.875550
      dz2     :     0.002564  d :     0.035473
      dxz     :     0.005971
      dyz     :     0.003348
      dx2y2   :     0.011408
      dxy     :     0.012181

  4 C s       :     3.178645  s :     3.178645
      pz      :     0.984083  p :     2.791147
      px      :     0.919483
      py      :     0.887580
      dz2     :     0.002571  d :     0.035343
      dxz     :     0.005356
      dyz     :     0.003864
      dx2y2   :     0.010809
      dxy     :     0.012742

  5 C s       :     3.245746  s :     3.245746
      pz      :     0.981550  p :     2.760729
      px      :     0.844065
      py      :     0.935114
      dz2     :     0.002633  d :     0.035006
      dxz     :     0.002327
      dyz     :     0.007011
      dx2y2   :     0.012554
      dxy     :     0.010481

  6 H s       :     0.964117  s :     0.964117
      pz      :     0.004909  p :     0.023819
      px      :     0.015511
      py      :     0.003399

  7 H s       :     0.955770  s :     0.955770
      pz      :     0.004809  p :     0.023657
      px      :     0.005770
      py      :     0.013078

  8 H s       :     0.954067  s :     0.954067
      pz      :     0.004855  p :     0.023727
      px      :     0.007249
      py      :     0.011623

  9 H s       :     0.958414  s :     0.958414
      pz      :     0.004930  p :     0.023834
      px      :     0.015467
      py      :     0.003437

 10 C s       :     3.084896  s :     3.084896
      pz      :     0.976922  p :     2.899832
      px      :     0.979080
      py      :     0.943830
      dz2     :     0.009863  d :     0.044837
      dxz     :     0.007579
      dyz     :     0.008261
      dx2y2   :     0.008585
      dxy     :     0.010550

 11 C s       :     3.274884  s :     3.274884
      pz      :     0.963793  p :     2.821627
      px      :     0.990718
      py      :     0.867117
      dz2     :     0.005017  d :     0.032592
      dxz     :     0.006167
      dyz     :     0.006396
      dx2y2   :     0.006887
      dxy     :     0.008124

 12 C s       :     3.025289  s :     3.025289
      pz      :     1.012827  p :     2.898350
      px      :     0.895484
      py      :     0.990038
      dz2     :     0.028330  d :     0.100030
      dxz     :     0.016181
      dyz     :     0.016982
      dx2y2   :     0.021495
      dxy     :     0.017042

 13 C s       :     3.248112  s :     3.248112
      pz      :     1.018391  p :     2.838096
      px      :     0.946044
      py      :     0.873662
      dz2     :     0.006457  d :     0.031514
      dxz     :     0.005525
      dyz     :     0.006467
      dx2y2   :     0.005560
      dxy     :     0.007504

 14 C s       :     3.184798  s :     3.184798
      pz      :     0.911148  p :     2.779249
      px      :     0.958089
      py      :     0.910012
      dz2     :     0.005356  d :     0.037016
      dxz     :     0.006269
      dyz     :     0.008237
      dx2y2   :     0.009607
      dxy     :     0.007548

 15 C s       :     3.206079  s :     3.206079
      pz      :     0.943908  p :     2.782278
      px      :     0.894277
      py      :     0.944093
      dz2     :     0.005186  d :     0.034066
      dxz     :     0.006268
      dyz     :     0.007287
      dx2y2   :     0.008191
      dxy     :     0.007135

 16 C s       :     3.081634  s :     3.081634
      pz      :     0.973052  p :     2.928023
      px      :     0.981992
      py      :     0.972979
      dz2     :     0.007849  d :     0.043214
      dxz     :     0.007348
      dyz     :     0.009619
      dx2y2   :     0.009229
      dxy     :     0.009168

 17 C s       :     3.215699  s :     3.215699
      pz      :     0.900606  p :     2.691497
      px      :     0.872285
      py      :     0.918606
      dz2     :     0.005489  d :     0.035234
      dxz     :     0.005980
      dyz     :     0.007974
      dx2y2   :     0.008294
      dxy     :     0.007497

 18 C s       :     3.187639  s :     3.187639
      pz      :     0.919367  p :     2.794526
      px      :     0.957412
      py      :     0.917747
      dz2     :     0.005233  d :     0.034926
      dxz     :     0.005694
      dyz     :     0.007988
      dx2y2   :     0.008231
      dxy     :     0.007779

 19 C s       :     3.220872  s :     3.220872
      pz      :     0.931638  p :     2.700525
      px      :     0.906594
      py      :     0.862293
      dz2     :     0.007959  d :     0.034871
      dxz     :     0.006103
      dyz     :     0.006720
      dx2y2   :     0.006289
      dxy     :     0.007799

 20 C s       :     3.045606  s :     3.045606
      pz      :     0.986987  p :     2.963439
      px      :     0.970289
      py      :     1.006162
      dz2     :     0.008064  d :     0.047643
      dxz     :     0.008624
      dyz     :     0.009736
      dx2y2   :     0.010926
      dxy     :     0.010292

 21 C s       :     3.289040  s :     3.289040
      pz      :     0.886050  p :     2.657364
      px      :     0.914673
      py      :     0.856641
      dz2     :     0.005420  d :     0.034643
      dxz     :     0.005691
      dyz     :     0.007389
      dx2y2   :     0.008174
      dxy     :     0.007970

 22 H s       :     0.993528  s :     0.993528
      pz      :     0.009758  p :     0.024883
      px      :     0.004486
      py      :     0.010639

 23 H s       :     0.990355  s :     0.990355
      pz      :     0.004489  p :     0.024864
      px      :     0.008699
      py      :     0.011676

 24 H s       :     0.949246  s :     0.949246
      pz      :     0.004103  p :     0.024613
      px      :     0.007330
      py      :     0.013180

 25 H s       :     0.963032  s :     0.963032
      pz      :     0.009464  p :     0.023500
      px      :     0.004277
      py      :     0.009759

 26 H s       :     0.970805  s :     0.970805
      pz      :     0.008945  p :     0.024296
      px      :     0.011416
      py      :     0.003935

 27 H s       :     0.948322  s :     0.948322
      pz      :     0.008374  p :     0.024106
      px      :     0.011771
      py      :     0.003961

[...]
  0-1A  ->  1-1A    3.869419   31209.0   320.4   0.003057257   0.03225   0.06353  -0.01558   0.16724
  0-1A  ->  2-1A    4.145866   33438.7   299.1   0.070595884   0.69503  -0.76578   0.30863  -0.11563
  0-1A  ->  3-1A    4.618366   37249.6   268.5   0.021680495   0.19161   0.10863  -0.26932   0.32753

----------------------------------------------------------------------------------------------------
                     ABSORPTION SPECTRUM VIA TRANSITION VELOCITY DIPOLE MOMENTS    
----------------------------------------------------------------------------------------------------
     Transition      Energy     Energy  Wavelength fosc(P2)      P2        PX        PY        PZ   
                      (eV)      (cm-1)    (nm)                 (au**2)    (au)      (au)      (au)  
----------------------------------------------------------------------------------------------------
  0-1A  ->  1-3A    3.384533   27298.1   366.3   0.000000000   0.00000   0.00000   0.00000   0.00000
  0-1A  ->  2-3A    3.537811   28534.4   350.5   0.000000000   0.00000   0.00000   0.00000   0.00000
  0-1A  ->  3-3A    3.774172   30440.8   328.5   0.000000000   0.00000   0.00000   0.00000   0.00000
  0-1A  ->  1-1A    3.869419   31209.0   320.4   0.001760961   0.00038  -0.00793  -0.00009   0.01769
  0-1A  ->  2-1A    4.145866   33438.7   299.1   0.013915002   0.00318   0.05009   0.02015  -0.01630
  0-1A  ->  3-1A    4.618366   37249.6   268.5   0.005112616   0.00130  -0.02657  -0.00969   0.02241

------------------------------------------------------------------------------------------
                     CD SPECTRUM VIA TRANSITION ELECTRIC DIPOLE MOMENTS    
------------------------------------------------------------------------------------------
     Transition      Energy     Energy  Wavelength    R        MX        MY        MZ   
                      (eV)      (cm-1)    (nm)   (1e40*cgs)   (au)      (au)      (au)  
------------------------------------------------------------------------------------------
  0-1A  ->  1-3A    3.384533   27298.1   366.3   -0.00000   0.00000   0.00000   0.00000
  0-1A  ->  2-3A    3.537811   28534.4   350.5   -0.00000   0.00000   0.00000   0.00000
  0-1A  ->  3-3A    3.774172   30440.8   328.5   -0.00000   0.00000   0.00000   0.00000
  0-1A  ->  1-1A    3.869419   31209.0   320.4   11.39727   0.02905   0.05801  -0.15018
  0-1A  ->  2-1A    4.145866   33438.7   299.1  -32.49804  -0.11327  -0.07477  -0.04554
  0-1A  ->  3-1A    4.618366   37249.6   268.5   15.47008   0.08280   0.06904  -0.07088

------------------------------------------------------------------------------------------
                     CD SPECTRUM VIA TRANSITION VELOCITY DIPOLE MOMENTS    
------------------------------------------------------------------------------------------
     Transition      Energy     Energy  Wavelength    R        MX        MY        MZ   
                      (eV)      (cm-1)    (nm)   (1e40*cgs)   (au)      (au)      (au)  
------------------------------------------------------------------------------------------
  0-1A  ->  1-3A    3.384533   27298.1   366.3    0.00000   0.00000   0.00000   0.00000
  0-1A  ->  2-3A    3.537811   28534.4   350.5    0.00000   0.00000   0.00000   0.00000
  0-1A  ->  3-3A    3.774172   30440.8   328.5    0.00000   0.00000   0.00000   0.00000
  0-1A  ->  1-1A    3.869419   31209.0   320.4   -9.58620   0.02905   0.05801  -0.15018
  0-1A  ->  2-1A    4.145866   33438.7   299.1  -19.91941  -0.11327  -0.07477  -0.04554
  0-1A  ->  3-1A    4.618366   37249.6   268.5  -12.37941   0.08280   0.06904  -0.07088

-------------------------------------------
SOC CORRECTED TD-DFT/TDA-EXCITATION SPECTRA
--------------------------------------------
Generating SOC_CIS transition densities           ... done 

--------------------------------------------------------------------------------------------------------
      SOC CORRECTED ABSORPTION SPECTRUM VIA TRANSITION ELECTRIC DIPOLE MOMENTS    
--------------------------------------------------------------------------------------------------------
      Transition         Energy     Energy  Wavelength fosc(D2)      D2       |DX|      |DY|      |DZ|  
                          (eV)      (cm-1)    (nm)                 (au**2)    (au)      (au)      (au)  
--------------------------------------------------------------------------------------------------------
  0-1.0A  ->  1-3.0A    3.384533   27298.1   366.3   0.000000000   0.00000   0.00000   0.00002   0.00001
  0-1.0A  ->  2-3.0A    3.384533   27298.1   366.3   0.000000000   0.00000   0.00002   0.00001   0.00000
  0-1.0A  ->  3-3.0A    3.384533   27298.1   366.3   0.000000000   0.00000   0.00002   0.00001   0.00000
  0-1.0A  ->  4-3.0A    3.537811   28534.4   350.5   0.000000000   0.00000   0.00004   0.00002   0.00002
  0-1.0A  ->  5-3.0A    3.537811   28534.4   350.5   0.000000000   0.00000   0.00002   0.00001   0.00000
  0-1.0A  ->  6-3.0A    3.537811   28534.4   350.5   0.000000000   0.00000   0.00003   0.00001   0.00000
  0-1.0A  ->  7-3.0A    3.774172   30440.8   328.5   0.000000001   0.00000   0.00009   0.00004   0.00006
  0-1.0A  ->  8-3.0A    3.774172   30440.8   328.5   0.000000000   0.00000   0.00001   0.00000   0.00002
  0-1.0A  ->  9-3.0A    3.774172   30440.8   328.5   0.000000000   0.00000   0.00004   0.00002   0.00000
  0-1.0A  -> 10-1.0A    3.869419   31209.0   320.4   0.003057256   0.03225   0.06353   0.01558   0.16724
  0-1.0A  -> 11-1.0A    4.145866   33438.7   299.1   0.070595883   0.69503   0.76578   0.30863   0.11563
  0-1.0A  -> 12-1.0A    4.618366   37249.6   268.5   0.021680495   0.19161   0.10863   0.26932   0.32753

--------------------------------------------------------------------------------------------------------
      SOC CORRECTED ABSORPTION SPECTRUM VIA TRANSITION VELOCITY DIPOLE MOMENTS    
--------------------------------------------------------------------------------------------------------
      Transition         Energy     Energy  Wavelength fosc(P2)      P2       |PX|      |PY|      |PZ|  
                          (eV)      (cm-1)    (nm)                 (au**2)    (au)      (au)      (au)  
--------------------------------------------------------------------------------------------------------
  0-1.0A  ->  1-3.0A    3.384533   27298.1   366.3   0.000000000   0.00000   0.00000   0.00000   0.00000
  0-1.0A  ->  2-3.0A    3.384533   27298.1   366.3   0.000000000   0.00000   0.00000   0.00000   0.00000
  0-1.0A  ->  3-3.0A    3.384533   27298.1   366.3   0.000000000   0.00000   0.00000   0.00000   0.00000
  0-1.0A  ->  4-3.0A    3.537811   28534.4   350.5   0.000000000   0.00000   0.00000   0.00000   0.00000
  0-1.0A  ->  5-3.0A    3.537811   28534.4   350.5   0.000000000   0.00000   0.00000   0.00000   0.00000
  0-1.0A  ->  6-3.0A    3.537811   28534.4   350.5   0.000000000   0.00000   0.00000   0.00000   0.00000
  0-1.0A  ->  7-3.0A    3.774172   30440.8   328.5   0.000000000   0.00000   0.00001   0.00000   0.00001
  0-1.0A  ->  8-3.0A    3.774172   30440.8   328.5   0.000000000   0.00000   0.00000   0.00000   0.00000
  0-1.0A  ->  9-3.0A    3.774172   30440.8   328.5   0.000000000   0.00000   0.00000   0.00000   0.00000
  0-1.0A  -> 10-1.0A    3.869419   31209.0   320.4   0.001760960   0.00038   0.00793   0.00009   0.01769
  0-1.0A  -> 11-1.0A    4.145866   33438.7   299.1   0.013915002   0.00318   0.05009   0.02015   0.01630
  0-1.0A  -> 12-1.0A    4.618366   37249.6   268.5   0.005112616   0.00130   0.02657   0.00969   0.02241

----------------------------------------------------------------------------------------------
      SOC CORRECTED CD SPECTRUM VIA TRANSITION ELECTRIC DIPOLE MOMENTS    
----------------------------------------------------------------------------------------------
      Transition         Energy     Energy  Wavelength    R       |MX|      |MY|      |MZ|  
                          (eV)      (cm-1)    (nm)    (1e40*cgs)  (au)      (au)      (au)  
----------------------------------------------------------------------------------------------
  0-1.0A  ->  1-3.0A    3.384533   27298.1   366.3    0.00000   0.00000   0.00001   0.00001
  0-1.0A  ->  2-3.0A    3.384533   27298.1   366.3   -0.00000   0.00000   0.00000   0.00000
  0-1.0A  ->  3-3.0A    3.384533   27298.1   366.3   -0.00000   0.00001   0.00000   0.00001
  0-1.0A  ->  4-3.0A    3.537811   28534.4   350.5   -0.00000   0.00001   0.00001   0.00001
  0-1.0A  ->  5-3.0A    3.537811   28534.4   350.5   -0.00000   0.00001   0.00000   0.00000
  0-1.0A  ->  6-3.0A    3.537811   28534.4   350.5    0.00000   0.00000   0.00000   0.00000
  0-1.0A  ->  7-3.0A    3.774172   30440.8   328.5   -0.00000   0.00003   0.00002   0.00002
  0-1.0A  ->  8-3.0A    3.774172   30440.8   328.5    0.00000   0.00000   0.00001   0.00003
  0-1.0A  ->  9-3.0A    3.774172   30440.8   328.5   -0.00000   0.00000   0.00000   0.00000
  0-1.0A  -> 10-1.0A    3.869419   31209.0   320.4   11.39727   0.02905   0.05801   0.15018
  0-1.0A  -> 11-1.0A    4.145866   33438.7   299.1  -32.49804   0.11327   0.07477   0.04554
  0-1.0A  -> 12-1.0A    4.618366   37249.6   268.5   15.47008   0.08280   0.06904   0.07088

----------------------------------------------------------------------------------------------
      SOC CORRECTED CD SPECTRUM VIA TRANSITION VELOCITY DIPOLE MOMENTS    
----------------------------------------------------------------------------------------------
      Transition         Energy     Energy  Wavelength    R       |MX|      |MY|      |MZ|  
                          (eV)      (cm-1)    (nm)    (1e40*cgs)  (au)      (au)      (au)  
----------------------------------------------------------------------------------------------
  0-1.0A  ->  1-3.0A    3.384533   27298.1   366.3    0.00000   0.00000   0.00001   0.00001
  0-1.0A  ->  2-3.0A    3.384533   27298.1   366.3   -0.00000   0.00000   0.00000   0.00000
  0-1.0A  ->  3-3.0A    3.384533   27298.1   366.3   -0.00000   0.00001   0.00000   0.00001
  0-1.0A  ->  4-3.0A    3.537811   28534.4   350.5   -0.00000   0.00001   0.00001   0.00001
  0-1.0A  ->  5-3.0A    3.537811   28534.4   350.5   -0.00000   0.00001   0.00000   0.00000
  0-1.0A  ->  6-3.0A    3.537811   28534.4   350.5   -0.00000   0.00000   0.00000   0.00000
  0-1.0A  ->  7-3.0A    3.774172   30440.8   328.5   -0.00000   0.00003   0.00002   0.00002
  0-1.0A  ->  8-3.0A    3.774172   30440.8   328.5   -0.00000   0.00000   0.00001   0.00003
  0-1.0A  ->  9-3.0A    3.774172   30440.8   328.5   -0.00000   0.00000   0.00000   0.00000
  0-1.0A  -> 10-1.0A    3.869419   31209.0   320.4   -9.58620   0.02905   0.05801   0.15018
  0-1.0A  -> 11-1.0A    4.145866   33438.7   299.1  -19.91941   0.11327   0.07477   0.04554
  0-1.0A  -> 12-1.0A    4.618366   37249.6   268.5  -12.37941   0.08280   0.06904   0.07088

Total run time:      108.281 sec

           *** ORCA-CIS/TD-DFT FINISHED WITHOUT ERROR ***

---------------------------
SOC CIS/TD-DFT TOTAL ENERGY
---------------------------

    E(SCF)        =   -840.683872699 Eh
    E(SOC CIS)    =      0.124379314 Eh (SOC Root  1)
    ----------------------------- ---------
    E(tot)        =   -840.559493385 Eh


Maximum memory used throughout the entire CIS-calculation: 85.4 MB
=> NOW LEAVING ORCA_CIS

-------------------------   --------------------
FINAL SINGLE POINT ENERGY      -840.559493384702
-------------------------   --------------------


------------------------------------------------------------------------------
                              ORCA PROPERTY CALCULATIONS
------------------------------------------------------------------------------

GBWName                                 ... n1_CNNH2_job2.gbw
Number of atoms                         ...     35
Number of basis functions               ...    364
Max core memory                         ...   1024 MB

Electric properties:
Dipole moment                           ... YES
Quadrupole moment                       ...  NO
Static polarizability (Dipole/Dipole)   ...  NO
Static polarizability (Dipole/Quad.)    ...  NO
Static polarizability (Quad./Quad.)     ...  NO
Static polarizability (Velocity)        ...  NO

Atomic electric properties:
Dipole moment                           ...  NO
Quadrupole moment                       ...  NO
Static polarizability                   ...  NO

Choice of electric origin               ... Center of mass
Position of electric origin             ...    -4.436481     1.618628    -0.205667

General magnetic properties:
Magnetizability                         ...  NO

EPR properties:
g-Tensor (aka g-matrix)                 ...  NO
Zero-Field splitting spin-orbit         ...  NO
Zero-field splitting spin-spin          ...  NO
Hyperfine couplings                     ...  NO (   0 nuclei)
Quadrupole couplings                    ...  NO (   0 nuclei)
Contact density                         ...  NO (   0 nuclei)

NMR properties:
Chemical shifts                         ...  NO (   0 nuclei)
Spin-rotation constants                 ...  NO (   0 nuclei)
Spin-spin couplings                     ...  NO (   0 nuclei,    0 pairs)

Choice of magnetic origin               ... GIAO
Position of magnetic origin             ...     0.000000     0.000000     0.000000

Properties with geometric perturbations:
SCF Hessian                             ...  NO
IR spectrum                             ...  NO
VCD spectrum                            ...  NO
X-ray spectroscopy properties:
SCF XES/XAS/RIXS spectra                ...  NO


-------------
DIPOLE MOMENT
-------------

Method             : SCF
Type of density    : Electron Density
Multiplicity       :   1
Irrep              :   0
Energy             :  -840.6838726991259136 Eh
Relativity type    : 
Basis              : AO
                                X                 Y                 Z
Electronic contribution:      9.537573822       1.375239730      -3.223171445
Nuclear contribution   :    -11.502562564      -1.501887036       4.898852976
                        -----------------------------------------
Total Dipole Moment    :     -1.964988743      -0.126647306       1.675681531
                        -----------------------------------------
Magnitude (a.u.)       :      2.585561620
Magnitude (Debye)      :      6.571975355



--------------------
Rotational spectrum 
--------------------
 
Rotational constants in cm-1:             0.014380             0.007600             0.005555 
Rotational constants in MHz :           431.105879           227.855337           166.535523 

Dipole components along the rotational axes: 
x,y,z [a.u.] :    -2.243037    -0.184016     1.272812 
x,y,z [Debye]:    -5.701348    -0.467732     3.235231 

 

Dipole moment calculation done in   0.0 sec 

Maximum memory used throughout the entire PROP-calculation: 28.7 MB

--------------------------------
SUGGESTED CITATIONS FOR THIS RUN
--------------------------------

Below you find a list of papers that are relevant to this ORCA run
We neither can nor want to force you to cite these papers, but we appreciate if you do
You receive ORCA, which is the product of decades of hard work by many enthusiastic individuals, for free
The only thing we kindly ask in return is that you cite our papers,
We deeply appreciate it, if you show your appreciation for ORCA by not just citing the generic ORCA reference.

Please note that relegating all ORCA citations to the supporting information does *not* help us.
SI sections are not indexed - citations you put there will not count into any citation statistics
But we need these citations in order to attract the funding resources that allow us to do what we are doing

Therefore, if you are a happy ORCA user, please consider citing a few of the papers listed below in the main body of your paper

In addition to the list printed below, the program has created the file n1_CNNH2_job2.bibtex that contains the list in bibtex format
You can import this file easily into all common literature databanks and citation aid programs


List of essential papers. We consider these as the minimum necessary citations

  1. Neese,F.
     Software update: the ORCA program system, version 5.0
     WIRES Comput. Molec. Sci., 2022 12(1)e1606
     doi.org/10.1002/wcms.1606

List of papers to cite with high priority. The work reported in these papers was absolutely
necessary for this run to complete.
Our perspective: the developers of density functionals and basis sets usually get cited in chemistry papers
Good! But without the algorithms to do something with them, the functionals or basis sets would not do anything.
Hence, in our opinion, the algorithm design and method developments papers are equally worthy of getting cited

  1. Neese,F.; Olbrich,G.
     Efficient use of the resolution of the identity approximation in time-dependent density functional calculations with hybrid density functionals
     Chem. Phys. Lett., 2002 362 170-178
     doi.org/10.1016/s0009-2614(02)01053-9
  2. Neese,F.
     An improvement of the resolution of the identity approximation for the formation of the Coulomb matrix
     J. Comp. Chem., 2003 24(14)1740-1747
     doi.org/10.1002/jcc.10318
  3. Neese,F.; Wennmohs,F.; Hansen,A.; Becker,U.
     Efficient, approximate and parallel Hartree-Fock and hybrid DFT calculations. A 'chain-of-spheres' algorithm for the Hartree-Fock exchange
     Chem. Phys., 2009 356(1-3)98-109
     doi.org/10.1016/j.chemphys.2008.10.036
  4. Helmich-Paris,B.; de Souza,B.; Neese,F.; Izsák,R.
     An improved chain of spheres for exchange algorithm
     J. Chem. Phys., 2021 155 104109
     doi.org/doi: 10.1063/5.0058766.
  5. Neese,F.
     The SHARK Integral Generation and Digestion System
     J. Comp. Chem., 2022  1-16
     doi.org/10.1002/jcc.26942

List of suggested additional citations. These are papers that are important in the 'surrounding' of 
of this run, or papers that preceded the highly important papers. If you like your results we are grateful for a citation.

  1. Izsak,R.; Neese,F.
     An overlap fitted chain of spheres exchange method
     J. Chem. Phys., 2011 135 144105
     doi.org/10.1063/1.3646921
  2. Izsak,R.; Hansen,A.; Neese,F.
     The resolution of identity and chain of spheres approximations for the LPNO-CCSD singles Fock term
     Molec. Phys., 2012 110 2413-2417
     doi.org/10.1080/00268976.2012.687466
  3. Neese,F.
     The ORCA program system
     WIRES Comput. Molec. Sci., 2012 2(1)73-78
     doi.org/10.1002/wcms.81
  4. Izsak,R.; Neese,F.; Klopper,W.
     Robust fitting techniques in the chain of spheres approximation to the Fock exchange: The role of the complementary space
     J. Chem. Phys., 2013 139 
     doi.org/10.1063/1.4819264
  5. Neese,F.
     Software update: the ORCA program system, version 4.0
     WIRES Comput. Molec. Sci., 2018 8(1)1-6
     doi.org/10.1002/wcms.1327
  6. Neese,F.; Wennmohs,F.; Becker,U.; Riplinger,C.
     The ORCA quantum chemistry program package
     J. Chem. Phys., 2020 152 Art. No. L224108
     doi.org/10.1063/5.0004608

List of optional additional citations

  1. Neese,F.
     Approximate second-order SCF convergence for spin unrestricted wavefunctions
     Chem. Phys. Lett., 2000 325(1-3)93-98
     doi.org/10.1016/s0009-2614(00)00662-x

Timings for individual modules:

Sum of individual times          ...      188.641 sec (=   3.144 min)
Startup calculation              ...        3.470 sec (=   0.058 min)   1.8 %
Relativistic integrals           ...        1.582 sec (=   0.026 min)   0.8 %
SCF iterations                   ...       62.713 sec (=   1.045 min)  33.2 %
Property integrals               ...       12.513 sec (=   0.209 min)   6.6 %
Property calculations            ...        0.065 sec (=   0.001 min)   0.0 %
CIS module                       ...      108.298 sec (=   1.805 min)  57.4 %



                             ****ORCA TERMINATED NORMALLY****
TOTAL RUN TIME: 0 days 1 hours 27 minutes 46 seconds 327 msec
