[Molden Format]
[Title]
 Molden file created by orca_2mkl for BaseName=n1_CNNH2

[Atoms] AU
C    1   6         -6.0091251569        -1.2109704367        -0.1410656260 
C    2   6         -3.3436665376        -1.0430632957        -0.0423419710 
C    3   6         -7.1279231919        -3.6128868510        -0.1871909004 
C    4   6         -5.6857259784        -5.8109438713        -0.1657905081 
C    5   6         -3.0607877261        -5.6429836233        -0.0997374043 
C    6   6         -1.9170487655        -3.2773529933        -0.0355287166 
H    7   1         -9.1861045954        -3.7370148664        -0.3006161949 
H    8   1         -6.6153604481        -7.6538763860        -0.2188765706 
H    9   1         -1.8999918398        -7.3501913674        -0.0797194358 
H   10   1          0.1404209900        -3.1417077055         0.0833676802 
C   11   6         -7.6818726232         1.0442569583        -0.2719015806 
C   12   6         -9.6840861836         1.2838537555         1.4365623521 
C   13   6        -11.3527474239         3.3466915744         1.3384803197 
C   14   6        -10.9664571567         5.1864313373        -0.5369674432 
C   15   6         -8.9835106148         4.9437257929        -2.2433036546 
C   16   6         -7.3338563439         2.8969820940        -2.1321042463 
C   17   6         -1.9763827349         1.4039664586         0.1389541911 
C   18   6         -2.6476564293         3.2333383214         1.9374622324 
C   19   6         -1.2969922300         5.4794770316         2.1542854841 
C   20   6          0.7512963594         5.9645438307         0.5801105104 
C   21   6          1.4470832943         4.1569926384        -1.2261365540 
C   22   6          0.0880626365         1.8916215027        -1.4362228947 
H   23   1         -9.9472484627        -0.1579887867         2.8948737381 
H   24   1        -12.2444677486         6.8060333602        -0.6557075543 
H   25   1          1.8171857388         7.7234043090         0.7345609314 
H   26   1         -8.7242712674         6.3857304879        -3.6994470464 
H   27   1         -5.7962247349         2.7184955222        -3.4947243357 
H   28   1         -4.2477490662         2.8743181013         3.1892550524 
H   29   1         -1.8468072442         6.8716926786         3.5754975544 
C   30   6          3.5496978573         4.6207265008        -2.8702046842 
H   31   1          0.6386093505         0.5125249648        -2.8687613803 
N   32   7          5.2521335070         5.0034431770        -4.1970876701 
N   33   7        -13.3676196727         3.5125925827         2.9852425449 
H   34   1        -13.2386260371         2.5062779512         4.6052210417 
H   35   1        -14.1336340382         5.2469299093         3.2279737207 
[GTO]
  1 0
s   5 1.0 
     1238.4016938000         0.8208956682
      186.2900499200         1.4766449896
       42.2511763460         2.1526124058
       11.6765579320         2.1081722461
        3.5930506482         0.8290999933
s   1 1.0 
        0.4024514736         0.3601183351
s   1 1.0 
        0.1309018267         0.1551027052
p   3 1.0 
        9.4680970621         1.3467645142
        2.0103545142         1.0678070931
        0.5477100471         0.5108735714
p   1 1.0 
        0.1526861379         0.1360471976
d   1 1.0 
        0.8000000000         1.9292013661

  2 0
s   5 1.0 
     1238.4016938000         0.8208956682
      186.2900499200         1.4766449896
       42.2511763460         2.1526124058
       11.6765579320         2.1081722461
        3.5930506482         0.8290999933
s   1 1.0 
        0.4024514736         0.3601183351
s   1 1.0 
        0.1309018267         0.1551027052
p   3 1.0 
        9.4680970621         1.3467645142
        2.0103545142         1.0678070931
        0.5477100471         0.5108735714
p   1 1.0 
        0.1526861379         0.1360471976
d   1 1.0 
        0.8000000000         1.9292013661

  3 0
s   5 1.0 
     1238.4016938000         0.8208956682
      186.2900499200         1.4766449896
       42.2511763460         2.1526124058
       11.6765579320         2.1081722461
        3.5930506482         0.8290999933
s   1 1.0 
        0.4024514736         0.3601183351
s   1 1.0 
        0.1309018267         0.1551027052
p   3 1.0 
        9.4680970621         1.3467645142
        2.0103545142         1.0678070931
        0.5477100471         0.5108735714
p   1 1.0 
        0.1526861379         0.1360471976
d   1 1.0 
        0.8000000000         1.9292013661

  4 0
s   5 1.0 
     1238.4016938000         0.8208956682
      186.2900499200         1.4766449896
       42.2511763460         2.1526124058
       11.6765579320         2.1081722461
        3.5930506482         0.8290999933
s   1 1.0 
        0.4024514736         0.3601183351
s   1 1.0 
        0.1309018267         0.1551027052
p   3 1.0 
        9.4680970621         1.3467645142
        2.0103545142         1.0678070931
        0.5477100471         0.5108735714
p   1 1.0 
        0.1526861379         0.1360471976
d   1 1.0 
        0.8000000000         1.9292013661

  5 0
s   5 1.0 
     1238.4016938000         0.8208956682
      186.2900499200         1.4766449896
       42.2511763460         2.1526124058
       11.6765579320         2.1081722461
        3.5930506482         0.8290999933
s   1 1.0 
        0.4024514736         0.3601183351
s   1 1.0 
        0.1309018267         0.1551027052
p   3 1.0 
        9.4680970621         1.3467645142
        2.0103545142         1.0678070931
        0.5477100471         0.5108735714
p   1 1.0 
        0.1526861379         0.1360471976
d   1 1.0 
        0.8000000000         1.9292013661

  6 0
s   5 1.0 
     1238.4016938000         0.8208956682
      186.2900499200         1.4766449896
       42.2511763460         2.1526124058
       11.6765579320         2.1081722461
        3.5930506482         0.8290999933
s   1 1.0 
        0.4024514736         0.3601183351
s   1 1.0 
        0.1309018267         0.1551027052
p   3 1.0 
        9.4680970621         1.3467645142
        2.0103545142         1.0678070931
        0.5477100471         0.5108735714
p   1 1.0 
        0.1526861379         0.1360471976
d   1 1.0 
        0.8000000000         1.9292013661

  7 0
s   3 1.0 
       13.0107010000         0.1634903809
        1.9622572000         0.2773515510
        0.4445379600         0.3157501452
s   1 1.0 
        0.1219496200         0.1470772262
p   1 1.0 
        0.8000000000         1.0784563492

  8 0
s   3 1.0 
       13.0107010000         0.1634903809
        1.9622572000         0.2773515510
        0.4445379600         0.3157501452
s   1 1.0 
        0.1219496200         0.1470772262
p   1 1.0 
        0.8000000000         1.0784563492

  9 0
s   3 1.0 
       13.0107010000         0.1634903809
        1.9622572000         0.2773515510
        0.4445379600         0.3157501452
s   1 1.0 
        0.1219496200         0.1470772262
p   1 1.0 
        0.8000000000         1.0784563492

 10 0
s   3 1.0 
       13.0107010000         0.1634903809
        1.9622572000         0.2773515510
        0.4445379600         0.3157501452
s   1 1.0 
        0.1219496200         0.1470772262
p   1 1.0 
        0.8000000000         1.0784563492

 11 0
s   5 1.0 
     1238.4016938000         0.8208956682
      186.2900499200         1.4766449896
       42.2511763460         2.1526124058
       11.6765579320         2.1081722461
        3.5930506482         0.8290999933
s   1 1.0 
        0.4024514736         0.3601183351
s   1 1.0 
        0.1309018267         0.1551027052
p   3 1.0 
        9.4680970621         1.3467645142
        2.0103545142         1.0678070931
        0.5477100471         0.5108735714
p   1 1.0 
        0.1526861379         0.1360471976
d   1 1.0 
        0.8000000000         1.9292013661

 12 0
s   5 1.0 
     1238.4016938000         0.8208956682
      186.2900499200         1.4766449896
       42.2511763460         2.1526124058
       11.6765579320         2.1081722461
        3.5930506482         0.8290999933
s   1 1.0 
        0.4024514736         0.3601183351
s   1 1.0 
        0.1309018267         0.1551027052
p   3 1.0 
        9.4680970621         1.3467645142
        2.0103545142         1.0678070931
        0.5477100471         0.5108735714
p   1 1.0 
        0.1526861379         0.1360471976
d   1 1.0 
        0.8000000000         1.9292013661

 13 0
s   5 1.0 
     1238.4016938000         0.8208956682
      186.2900499200         1.4766449896
       42.2511763460         2.1526124058
       11.6765579320         2.1081722461
        3.5930506482         0.8290999933
s   1 1.0 
        0.4024514736         0.3601183351
s   1 1.0 
        0.1309018267         0.1551027052
p   3 1.0 
        9.4680970621         1.3467645142
        2.0103545142         1.0678070931
        0.5477100471         0.5108735714
p   1 1.0 
        0.1526861379         0.1360471976
d   1 1.0 
        0.8000000000         1.9292013661

 14 0
s   5 1.0 
     1238.4016938000         0.8208956682
      186.2900499200         1.4766449896
       42.2511763460         2.1526124058
       11.6765579320         2.1081722461
        3.5930506482         0.8290999933
s   1 1.0 
        0.4024514736         0.3601183351
s   1 1.0 
        0.1309018267         0.1551027052
p   3 1.0 
        9.4680970621         1.3467645142
        2.0103545142         1.0678070931
        0.5477100471         0.5108735714
p   1 1.0 
        0.1526861379         0.1360471976
d   1 1.0 
        0.8000000000         1.9292013661

 15 0
s   5 1.0 
     1238.4016938000         0.8208956682
      186.2900499200         1.4766449896
       42.2511763460         2.1526124058
       11.6765579320         2.1081722461
        3.5930506482         0.8290999933
s   1 1.0 
        0.4024514736         0.3601183351
s   1 1.0 
        0.1309018267         0.1551027052
p   3 1.0 
        9.4680970621         1.3467645142
        2.0103545142         1.0678070931
        0.5477100471         0.5108735714
p   1 1.0 
        0.1526861379         0.1360471976
d   1 1.0 
        0.8000000000         1.9292013661

 16 0
s   5 1.0 
     1238.4016938000         0.8208956682
      186.2900499200         1.4766449896
       42.2511763460         2.1526124058
       11.6765579320         2.1081722461
        3.5930506482         0.8290999933
s   1 1.0 
        0.4024514736         0.3601183351
s   1 1.0 
        0.1309018267         0.1551027052
p   3 1.0 
        9.4680970621         1.3467645142
        2.0103545142         1.0678070931
        0.5477100471         0.5108735714
p   1 1.0 
        0.1526861379         0.1360471976
d   1 1.0 
        0.8000000000         1.9292013661

 17 0
s   5 1.0 
     1238.4016938000         0.8208956682
      186.2900499200         1.4766449896
       42.2511763460         2.1526124058
       11.6765579320         2.1081722461
        3.5930506482         0.8290999933
s   1 1.0 
        0.4024514736         0.3601183351
s   1 1.0 
        0.1309018267         0.1551027052
p   3 1.0 
        9.4680970621         1.3467645142
        2.0103545142         1.0678070931
        0.5477100471         0.5108735714
p   1 1.0 
        0.1526861379         0.1360471976
d   1 1.0 
        0.8000000000         1.9292013661

 18 0
s   5 1.0 
     1238.4016938000         0.8208956682
      186.2900499200         1.4766449896
       42.2511763460         2.1526124058
       11.6765579320         2.1081722461
        3.5930506482         0.8290999933
s   1 1.0 
        0.4024514736         0.3601183351
s   1 1.0 
        0.1309018267         0.1551027052
p   3 1.0 
        9.4680970621         1.3467645142
        2.0103545142         1.0678070931
        0.5477100471         0.5108735714
p   1 1.0 
        0.1526861379         0.1360471976
d   1 1.0 
        0.8000000000         1.9292013661

 19 0
s   5 1.0 
     1238.4016938000         0.8208956682
      186.2900499200         1.4766449896
       42.2511763460         2.1526124058
       11.6765579320         2.1081722461
        3.5930506482         0.8290999933
s   1 1.0 
        0.4024514736         0.3601183351
s   1 1.0 
        0.1309018267         0.1551027052
p   3 1.0 
        9.4680970621         1.3467645142
        2.0103545142         1.0678070931
        0.5477100471         0.5108735714
p   1 1.0 
        0.1526861379         0.1360471976
d   1 1.0 
        0.8000000000         1.9292013661

 20 0
s   5 1.0 
     1238.4016938000         0.8208956682
      186.2900499200         1.4766449896
       42.2511763460         2.1526124058
       11.6765579320         2.1081722461
        3.5930506482         0.8290999933
s   1 1.0 
        0.4024514736         0.3601183351
s   1 1.0 
        0.1309018267         0.1551027052
p   3 1.0 
        9.4680970621         1.3467645142
        2.0103545142         1.0678070931
        0.5477100471         0.5108735714
p   1 1.0 
        0.1526861379         0.1360471976
d   1 1.0 
        0.8000000000         1.9292013661

 21 0
s   5 1.0 
     1238.4016938000         0.8208956682
      186.2900499200         1.4766449896
       42.2511763460         2.1526124058
       11.6765579320         2.1081722461
        3.5930506482         0.8290999933
s   1 1.0 
        0.4024514736         0.3601183351
s   1 1.0 
        0.1309018267         0.1551027052
p   3 1.0 
        9.4680970621         1.3467645142
        2.0103545142         1.0678070931
        0.5477100471         0.5108735714
p   1 1.0 
        0.1526861379         0.1360471976
d   1 1.0 
        0.8000000000         1.9292013661

 22 0
s   5 1.0 
     1238.4016938000         0.8208956682
      186.2900499200         1.4766449896
       42.2511763460         2.1526124058
       11.6765579320         2.1081722461
        3.5930506482         0.8290999933
s   1 1.0 
        0.4024514736         0.3601183351
s   1 1.0 
        0.1309018267         0.1551027052
p   3 1.0 
        9.4680970621         1.3467645142
        2.0103545142         1.0678070931
        0.5477100471         0.5108735714
p   1 1.0 
        0.1526861379         0.1360471976
d   1 1.0 
        0.8000000000         1.9292013661

 23 0
s   3 1.0 
       13.0107010000         0.1634903809
        1.9622572000         0.2773515510
        0.4445379600         0.3157501452
s   1 1.0 
        0.1219496200         0.1470772262
p   1 1.0 
        0.8000000000         1.0784563492

 24 0
s   3 1.0 
       13.0107010000         0.1634903809
        1.9622572000         0.2773515510
        0.4445379600         0.3157501452
s   1 1.0 
        0.1219496200         0.1470772262
p   1 1.0 
        0.8000000000         1.0784563492

 25 0
s   3 1.0 
       13.0107010000         0.1634903809
        1.9622572000         0.2773515510
        0.4445379600         0.3157501452
s   1 1.0 
        0.1219496200         0.1470772262
p   1 1.0 
        0.8000000000         1.0784563492

 26 0
s   3 1.0 
       13.0107010000         0.1634903809
        1.9622572000         0.2773515510
        0.4445379600         0.3157501452
s   1 1.0 
        0.1219496200         0.1470772262
p   1 1.0 
        0.8000000000         1.0784563492

 27 0
s   3 1.0 
       13.0107010000         0.1634903809
        1.9622572000         0.2773515510
        0.4445379600         0.3157501452
s   1 1.0 
        0.1219496200         0.1470772262
p   1 1.0 
        0.8000000000         1.0784563492

 28 0
s   3 1.0 
       13.0107010000         0.1634903809
        1.9622572000         0.2773515510
        0.4445379600         0.3157501452
s   1 1.0 
        0.1219496200         0.1470772262
p   1 1.0 
        0.8000000000         1.0784563492

 29 0
s   3 1.0 
       13.0107010000         0.1634903809
        1.9622572000         0.2773515510
        0.4445379600         0.3157501452
s   1 1.0 
        0.1219496200         0.1470772262
p   1 1.0 
        0.8000000000         1.0784563492

 30 0
s   5 1.0 
     1238.4016938000         0.8208956682
      186.2900499200         1.4766449896
       42.2511763460         2.1526124058
       11.6765579320         2.1081722461
        3.5930506482         0.8290999933
s   1 1.0 
        0.4024514736         0.3601183351
s   1 1.0 
        0.1309018267         0.1551027052
p   3 1.0 
        9.4680970621         1.3467645142
        2.0103545142         1.0678070931
        0.5477100471         0.5108735714
p   1 1.0 
        0.1526861379         0.1360471976
d   1 1.0 
        0.8000000000         1.9292013661

 31 0
s   3 1.0 
       13.0107010000         0.1634903809
        1.9622572000         0.2773515510
        0.4445379600         0.3157501452
s   1 1.0 
        0.1219496200         0.1470772262
p   1 1.0 
        0.8000000000         1.0784563492

 32 0
s   5 1.0 
     1712.8415853000        -1.0337585405
      257.6481267700        -1.8620740805
       58.4582458530        -2.7290401880
       16.1983679050        -2.6956734544
        5.0052600809        -1.0640914367
s   1 1.0 
        0.5873185657         0.4781513534
s   1 1.0 
        0.1876459225         0.2031956662
p   3 1.0 
       13.5714702330        -2.1850243557
        2.9257372874        -1.7466999024
        0.7992775075        -0.8114650516
p   1 1.0 
        0.2195434803         0.2142105067
d   1 1.0 
        1.0000000000         2.8508218814

 33 0
s   5 1.0 
     1712.8415853000        -1.0337585405
      257.6481267700        -1.8620740805
       58.4582458530        -2.7290401880
       16.1983679050        -2.6956734544
        5.0052600809        -1.0640914367
s   1 1.0 
        0.5873185657         0.4781513534
s   1 1.0 
        0.1876459225         0.2031956662
p   3 1.0 
       13.5714702330        -2.1850243557
        2.9257372874        -1.7466999024
        0.7992775075        -0.8114650516
p   1 1.0 
        0.2195434803         0.2142105067
d   1 1.0 
        1.0000000000         2.8508218814

 34 0
s   3 1.0 
       13.0107010000         0.1634903809
        1.9622572000         0.2773515510
        0.4445379600         0.3157501452
s   1 1.0 
        0.1219496200         0.1470772262
p   1 1.0 
        0.8000000000         1.0784563492

 35 0
s   3 1.0 
       13.0107010000         0.1634903809
        1.9622572000         0.2773515510
        0.4445379600         0.3157501452
s   1 1.0 
        0.1219496200         0.1470772262
p   1 1.0 
        0.8000000000         1.0784563492

[5D]
[7F]
[9G]
[MO]
 Sym=     1a
 Ene= -1.44153834235189E+01
 Spin= Alpha
 Occup= 2.000000
  1      -0.000007062756
  2      -0.000164952713
  3       0.006845927290
  4       0.000101218234
  5      -0.000129436110
  6      -0.000039967644
  7      -0.005845555720
  8       0.008716092010
  9      -0.000479385266
 10      -0.000102469317
 11       0.000025374992
 12      -0.000048268270
 13      -0.000096910086
 14      -0.000132082294
 15      -0.000012361291
 16       0.000237232344
 17      -0.000985581262
 18       0.000008779386
 19       0.000089352464
 20      -0.000001221963
 21      -0.002519539340
 22      -0.006230579894
 23      -0.000266423490
 24      -0.000005220873
 25      -0.000011965090
 26      -0.000020665287
 27       0.000044231283
 28       0.000029122031
 29      -0.000011230562
 30       0.000178322160
 31       0.001987832368
 32       0.000099331737
 33       0.000000240131
 34      -0.000040546975
 35       0.001655098704
 36       0.000500595115
 37       0.000290023761
 38      -0.000036391266
 39       0.000012681404
 40       0.000008885425
 41       0.000094585349
 42       0.000081098964
 43      -0.000002381844
 44      -0.000080254694
 45      -0.000933992768
 46      -0.000001026423
 47      -0.000012718925
 48       0.000006667792
 49      -0.000271349435
 50       0.000171259925
 51      -0.000115044444
 52      -0.000037998542
 53       0.000007514646
 54      -0.000006959119
 55      -0.000017113121
 56      -0.000005290896
 57       0.000003556124
 58      -0.000036357385
 59       0.000957077575
 60       0.000027605850
 61      -0.000013074360
 62      -0.000006669897
 63      -0.000367341619
 64       0.000098694774
 65       0.000044772196
 66      -0.000004225255
 67      -0.000004822693
 68      -0.000001233898
 69       0.000008646630
 70       0.000008415252
 71       0.000011647317
 72      -0.000250099804
 73      -0.002233309439
 74       0.000069279128
 75      -0.000029606525
 76       0.000001088392
 77       0.001140795143
 78      -0.000313179357
 79       0.000030656109
 80      -0.000022747134
 81      -0.000004766112
 82       0.000001970764
 83      -0.000038110001
 84       0.000022024588
 85       0.000087036032
 86       0.000470116107
 87      -0.000047617981
 88      -0.000023530162
 89      -0.000003043015
 90       0.000046522346
 91       0.000183980855
 92       0.000016453406
 93      -0.000001871929
 94       0.000011825219
 95       0.000006241028
 96       0.000021344034
 97       0.000004210280
 98       0.000012654646
 99      -0.000005682985
100      -0.000036305256
101      -0.000175452874
102      -0.000019929649
103       0.000010277141
104       0.000003041654
105       0.000038723398
106      -0.000726533586
107      -0.003292232270
108       0.000285892336
109      -0.000281894721
110      -0.000119942536
111      -0.007437147000
112       0.009355081568
113       0.000052584680
114       0.000105103588
115      -0.000173996832
116      -0.000086002158
117       0.000071317609
118       0.000121690546
119      -0.000032235904
120       0.000335916971
121      -0.000715173538
122       0.000034627151
123       0.000016924871
124      -0.000022113897
125      -0.000468350386
126       0.001437613934
127      -0.000679945303
128       0.000011045928
129       0.000062776535
130      -0.000320193177
131      -0.000260459076
132       0.000023510878
133       0.000190158116
134       0.001054631812
135       0.013897472633
136       0.001200328754
137      -0.000091737234
138      -0.000855122169
139      -0.016236924659
140       0.002231470115
141       0.012607674830
142      -0.000068107504
143       0.000977355942
144      -0.000117472641
145      -0.000670994880
146       0.000063614083
147      -0.000050366215
148       0.000583473336
149      -0.000826786769
150       0.000112794438
151      -0.000059688049
152       0.000002026835
153       0.002289508493
154      -0.002418022847
155      -0.000169224105
156      -0.000238240110
157       0.000163627397
158      -0.000047581944
159      -0.000127149620
160      -0.000385502557
161       0.000022837115
162      -0.000613091853
163       0.003099642671
164       0.000118474506
165       0.000013612235
166      -0.000162279113
167      -0.000812548148
168      -0.001481999963
169       0.002237270651
170      -0.000013742082
171      -0.000097836110
172      -0.000029984240
173       0.000039593529
174      -0.000075468400
175       0.000028241288
176      -0.000291723899
177      -0.005077222554
178       0.000139257629
179      -0.000018544943
180      -0.000087519929
181       0.002839886890
182      -0.000090535870
183      -0.003033064446
184      -0.000075923035
185       0.000104043431
186      -0.000014609740
187      -0.000076673193
188      -0.000056963290
189      -0.000011875820
190       0.000069742820
191       0.004715519089
192       0.000064359234
193       0.000018370132
194       0.000011498495
195      -0.002619989848
196      -0.003293046462
197       0.000073686975
198      -0.000038261528
199       0.000007095201
200       0.000025982082
201      -0.000039692701
202       0.000055867415
203      -0.000003256957
204      -0.000002857303
205       0.000804254919
206       0.000004707706
207      -0.000011630361
208      -0.000013897808
209       0.000578275227
210       0.000782248506
211      -0.000038215375
212      -0.000000918116
213      -0.000047833299
214      -0.000012233038
215       0.000045903523
216       0.000006679936
217       0.000003117704
218      -0.000046604098
219      -0.000657241448
220       0.000015217805
221       0.000016098404
222       0.000003050091
223       0.000268983765
224       0.000263700103
225      -0.000093905669
226      -0.000002692889
227       0.000001754318
228       0.000007407128
229      -0.000008763487
230       0.000001216182
231       0.000004627677
232      -0.000079106982
233       0.000023791652
234       0.000010473694
235       0.000024707608
236       0.000005256820
237       0.000297101947
238       0.000115906632
239      -0.000172495018
240       0.000007981335
241      -0.000019307335
242      -0.000003549195
243       0.000014119313
244      -0.000008234638
245       0.000005006195
246      -0.000092951960
247      -0.001522338617
248       0.000044339198
249       0.000020309511
250      -0.000020904748
251      -0.001517212473
252      -0.000747448437
253       0.000867272684
254      -0.000010881189
255       0.000012267342
256       0.000012329822
257      -0.000019582062
258       0.000013583756
259      -0.000004321754
260       0.000055073364
261       0.000072975784
262      -0.000007847933
263       0.000010609283
264       0.000017302648
265      -0.000424393154
266      -0.000122509715
267       0.000394467858
268       0.000023403927
269      -0.000029740336
270       0.000013160446
271       0.000006439670
272      -0.000017944123
273       0.000106285255
274      -0.000058062651
275       0.000179679624
276      -0.000252835914
277       0.000026111763
278       0.000286034000
279       0.000889415422
280      -0.000021927641
281       0.000223298943
282      -0.000173083977
283      -0.000021060734
284      -0.000093929651
285      -0.000008635215
286      -0.000006285550
287       0.000001401516
288       0.000283293269
289       0.000850863831
290       0.000057747653
291      -0.000083191244
292      -0.000012575513
293      -0.000283844821
294      -0.000985184287
295      -0.000045392191
296      -0.000032247303
297       0.000071108472
298       0.000100721315
299      -0.000243754696
300      -0.000048329155
301      -0.000024912184
302       0.000049079185
303       0.000014397901
304       0.000101773967
305      -0.000002686566
306      -0.000007622129
307       0.000000385273
308       0.000005847248
309      -0.000150106327
310       0.001311903960
311      -0.000005034707
312       0.000008204785
313       0.000011810153
314      -0.001571120531
315      -0.000309806661
316       0.001263282012
317       0.000005518090
318      -0.000019355840
319       0.000001044197
320       0.000009006275
321       0.000000332000
322       0.000006519823
323       0.000180356058
324       0.000018063483
325       0.000012953083
326      -0.000011133809
327       0.000126541059
328      -0.000082571554
329       0.001284882932
330      -0.000007156763
331      -0.000002787688
332       0.000004324445
333      -0.000263885380
334      -0.000069341842
335       0.000195883326
336       0.000000244260
337      -0.000002633603
338      -0.000000597845
339       0.000001646373
340       0.000000565627
341      -0.988722596927
342       0.045287753032
343      -0.041457522942
344      -0.001286970226
345      -0.000956920570
346      -0.001074002258
347      -0.009354569059
348       0.000344774332
349       0.007095137149
350       0.000253001144
351      -0.000237964936
352      -0.000696678885
353      -0.001006175640
354      -0.001005853184
355      -0.002566398132
356       0.002634326427
357       0.000852969915
358      -0.001852951543
359       0.002508140925
360      -0.002523043345
361       0.002594882276
362      -0.000798706474
363       0.003134739775
364       0.000000166869
 Sym=     1a
 Ene= -1.43964765086906E+01
 Spin= Alpha
 Occup= 2.000000
  1       0.000011460967
  2      -0.000238041441
  3       0.000732915647
  4       0.000024885496
  5      -0.000088607860
  6       0.000005781478
  7      -0.002617753109
  8       0.005695807295
  9      -0.000145777889
 10       0.000003354221
 11       0.000012895058
 12      -0.000013928817
 13      -0.000041993337
 14       0.000031232158
 15      -0.000003560015
 16       0.000301987228
 17      -0.006162028857
 18       0.000084656895
 19       0.000197836134
 20      -0.000035646839
 21      -0.003837902973
 22      -0.009427497287
 23      -0.000527782612
 24       0.000095012434
 25      -0.000019602402
 26      -0.000037601145
 27       0.000099765935
 28      -0.000106058381
 29      -0.000012169652
 30       0.000261241925
 31       0.002395816921
 32       0.000065110282
 33       0.000036759390
 34       0.000003842059
 35       0.000998566653
 36       0.000660806805
 37       0.000029935377
 38       0.000024980043
 39       0.000004299482
 40       0.000002135071
 41       0.000027402655
 42       0.000026647388
 43      -0.000003968914
 44       0.000052594227
 45      -0.001063899497
 46       0.000024499275
 47       0.000020888046
 48      -0.000005678591
 49      -0.000515221191
 50      -0.000177096944
 51       0.000042449174
 52       0.000007336459
 53       0.000005320323
 54      -0.000001001485
 55      -0.000009693128
 56       0.000004760192
 57       0.000003569821
 58       0.000052032054
 59       0.001154523992
 60      -0.000004390285
 61       0.000008814666
 62       0.000008790506
 63      -0.000413108540
 64      -0.000140681719
 65      -0.000138826846
 66       0.000035051205
 67      -0.000006675423
 68      -0.000011729299
 69       0.000014900232
 70      -0.000001611523
 71       0.000010439835
 72      -0.000135900130
 73      -0.002770079632
 74       0.000104682993
 75       0.000015973768
 76      -0.000053071415
 77       0.001843889360
 78      -0.000688452925
 79       0.000300969640
 80       0.000051545434
 81      -0.000012170895
 82       0.000004805618
 83      -0.000109970736
 84       0.000061372143
 85       0.000022106654
 86       0.000119556974
 87      -0.000015793266
 88      -0.000018178640
 89       0.000001257259
 90      -0.000017532559
 91      -0.000046556637
 92       0.000010039361
 93      -0.000013321380
 94      -0.000006163622