[Molden Format]
[Title]
 Molden file created by orca_2mkl for BaseName=CH3Cl

[Atoms] AU
C    1   6          0.0122681021         0.0122681021         0.0122681021 
Cl   2  17          1.9711374255         1.9711374255         1.9711374255 
H    3   1         -1.1561231104         1.2297808556        -1.1561231104 
H    4   1          1.2297808556        -1.1561231104        -1.1561231104 
H    5   1         -1.1561231104        -1.1561231104         1.2297808556 
[GTO]
  1 0
s   8 1.0 
     8236.0000000000         0.3342267437
     1235.0000000000         0.6230746416
      280.8000000000         1.0531059072
       79.2700000000         1.5831631342
       25.5900000000         1.9450988312
        8.9970000000         1.6429469100
        3.3190000000         0.6196591261
        0.3643000000        -0.0030667276
s   8 1.0 
     8236.0000000000        -0.1210101098
     1235.0000000000        -0.2265691066
      280.8000000000        -0.3857532897
       79.2700000000        -0.5967016836
       25.5900000000        -0.7858351262
        8.9970000000        -0.8165330321
        3.3190000000        -0.5188700868
        0.3643000000         0.3477346660
s   1 1.0 
        0.9059000000         0.6617901318
s   1 1.0 
        0.1285000000         0.1529633682
p   3 1.0 
       18.7100000000         2.1868515589
        4.1330000000         2.0503123413
        1.2000000000         1.4599445297
p   1 1.0 
        0.3827000000         0.4290551959
p   1 1.0 
        0.1209000000         0.1016185431
d   1 1.0 
        1.0970000000         3.3522135855
d   1 1.0 
        0.3180000000         0.3838994974
f   1 1.0 
        0.7610000000         3.0840084332

  2 0
s  13 1.0 
   456100.0000000000         0.6165961103
    68330.0000000000         1.1536536857
    15550.0000000000         1.9932580001
     4405.0000000000         3.2313036920
     1439.0000000000         4.9069924305
      520.4000000000         6.8201424545
      203.1000000000         8.1081654975
       83.9600000000         7.2221301639
       36.2000000000         3.5852816714
       15.8300000000         0.5776463197
        6.3340000000         0.0088684097
        2.6940000000         0.0015847761
        0.4313000000         0.0000592206
s  13 1.0 
   456100.0000000000        -0.1839177001
    68330.0000000000        -0.3435318550
    15550.0000000000        -0.5962161963
     4405.0000000000        -0.9674165885
     1439.0000000000        -1.4974459824
      520.4000000000        -2.1434578778
      203.1000000000        -2.7978820755
       83.9600000000        -2.9816102190
       36.2000000000        -2.2288141685
       15.8300000000        -0.1176551405
        6.3340000000         1.5118101548
        2.6940000000         0.8981889245
        0.4313000000        -0.0033675351
s  13 1.0 
   456100.0000000000         0.0812487016
    68330.0000000000         0.1516375455
    15550.0000000000         0.2635327078
     4405.0000000000         0.4271089922
     1439.0000000000         0.6633671358
      520.4000000000         0.9502925671
      203.1000000000         1.2547727855
       83.9600000000         1.3567815861
       36.2000000000         1.0637343538
       15.8300000000         0.0529310696
        6.3340000000        -0.9118892866
        2.6940000000        -0.9439744593
        0.4313000000         0.4271617976
s   1 1.0 
        0.9768000000         0.7002680798
s   1 1.0 
        0.1625000000         0.1824106186
p   7 1.0 
      663.3000000000        11.8699626361
      156.8000000000        15.6354047272
       49.9800000000        17.2495142474
       18.4200000000        14.3277043653
        7.2400000000         7.6097918346
        2.9220000000         1.9627872964
        0.3818000000        -0.0020176786
p   7 1.0 
      663.3000000000        -5.3631772252
      156.8000000000        -7.0414585327
       49.9800000000        -8.0172185746
       18.4200000000        -6.7886514043
        7.2400000000        -3.8888008967
        2.9220000000        -0.8845672875
        0.3818000000         0.4140261724
p   1 1.0 
        1.0220000000         1.4647169510
p   1 1.0 
        0.1301000000         0.1113747414
d   1 1.0 
        1.0460000000         3.0842568040
d   1 1.0 
        0.3440000000         0.4405014660
f   1 1.0 
        0.7060000000         2.6050175686

  3 0
s   3 1.0 
       33.8700000000         0.2551080577
        5.0950000000         0.4600978881
        1.1590000000         0.6784140671
s   1 1.0 
        0.3258000000         0.3073430538
s   1 1.0 
        0.1027000000         0.1292968442
p   1 1.0 
        1.4070000000         2.1842769845
p   1 1.0 
        0.3880000000         0.4364954740
d   1 1.0 
        1.0570000000         3.1412413909

  4 0
s   3 1.0 
       33.8700000000         0.2551080577
        5.0950000000         0.4600978881
        1.1590000000         0.6784140671
s   1 1.0 
        0.3258000000         0.3073430538
s   1 1.0 
        0.1027000000         0.1292968442
p   1 1.0 
        1.4070000000         2.1842769845
p   1 1.0 
        0.3880000000         0.4364954740
d   1 1.0 
        1.0570000000         3.1412413909

  5 0
s   3 1.0 
       33.8700000000         0.2551080577
        5.0950000000         0.4600978881
        1.1590000000         0.6784140671
s   1 1.0 
        0.3258000000         0.3073430538
s   1 1.0 
        0.1027000000         0.1292968442
p   1 1.0 
        1.4070000000         2.1842769845
p   1 1.0 
        0.3880000000         0.4364954740
d   1 1.0 
        1.0570000000         3.1412413909

[5D]
[7F]
[9G]
[MO]
 Sym=     1a
 Ene= -1.01545845322805E+02
 Spin= Alpha
 Occup= 2.000000
  1       0.0000006876914733
  2      -0.0000212031015023
  3      -0.0000596286241854
  4      -0.0011569309031625
  5      -0.0000431363640933
  6      -0.0000431368791514
  7      -0.0000431365864334
  8       0.0001633439612785
  9       0.0001633464811606
 10       0.0001633451135772
 11      -0.0002534920957372
 12      -0.0002534933627082
 13      -0.0002534927518506
 14      -0.0000000000868805
 15       0.0000089393612013
 16       0.0000089388030220
 17       0.0000000004741153
 18       0.0000089391519820
 19       0.0000000001147685
 20       0.0001147895607908
 21       0.0001147916594495
 22      -0.0000000064695092
 23       0.0001147903991911
 24      -0.0000416336733316
 25       0.0000254954609631
 26       0.0000254951596783
 27      -0.0000000002973132
 28       0.0000278733557485
 29       0.0000329148254900
 30      -0.0000329139270440
 31      -1.0006840125093279
 32      -0.0033335048015111
 33      -0.0027334424894227
 34       0.0032152784754908
 35       0.0018362046511767
 36       0.0001338738733360
 37       0.0001337926952886
 38       0.0001338662117913
 39       0.0001902575488477
 40       0.0001902138063508
 41       0.0001902301569067
 42      -0.0000761191391690
 43      -0.0000760654368715
 44      -0.0000760903648217
 45      -0.0003530861682797
 46      -0.0003530747399110
 47      -0.0003530830494340
 48      -0.0000000000862047
 49      -0.0000382404263951
 50      -0.0000382380630193
 51      -0.0000000023787814
 52      -0.0000382390967938
 53       0.0000000001004002
 54       0.0000347399351125
 55       0.0000347410988227
 56      -0.0000000011499509
 57       0.0000347404301865
 58      -0.0000191322264370
 59       0.0000117159726296
 60       0.0000117158124121
 61       0.0000000005321014
 62       0.0000338107054347
 63       0.0000151249360285
 64      -0.0000151256775737
 65      -0.0000187121745204
 66       0.0003146371116333
 67      -0.0000170764406841
 68       0.0000077308941946
 69      -0.0000039512149526
 70       0.0000077308366032
 71       0.0000493670528478
 72      -0.0000285344583504
 73       0.0000493683568683
 74       0.0000025735781250
 75      -0.0000135938230184
 76      -0.0000138462314873
 77       0.0000044576941216
 78      -0.0000138456981729
 79      -0.0000187128411741
 80       0.0003146370928112
 81      -0.0000170745650852
 82      -0.0000039515826444
 83       0.0000077304888451
 84       0.0000077305353772
 85      -0.0000285302441540
 86       0.0000493720048698
 87       0.0000493707036188
 88       0.0000025739913843
 89      -0.0000138452695345
 90      -0.0000135924667405
 91      -0.0000044583380385
 92      -0.0000138457452764
 93      -0.0000187122009656
 94       0.0003146379145665
 95      -0.0000170750837455
 96       0.0000077307767868
 97       0.0000077306872102
 98      -0.0000039514064834
 99       0.0000493681482132
100       0.0000493707218567
101      -0.0000285326576896
102      -0.0000051475809286
103      -0.0000138452773291
104      -0.0000138462826078
105       0.0000000000354526
106      -0.0000135932008150
 Sym=     1a
 Ene= -1.02278687821241E+01
 Spin= Alpha
 Occup= 2.000000
  1       0.9804435191032000
  2       0.0142596717513632
  3       0.0508306593930138
  4       0.0198351860522858
  5       0.0006356360059625
  6       0.0006353955009491
  7       0.0006353947145908
  8      -0.0049037727001925
  9      -0.0049032307373598
 10      -0.0049034715291645
 11      -0.0014416569091546
 12      -0.0014415043768549
 13      -0.0014416141641495
 14      -0.0000000633249849
 15      -0.0007336921474650
 16      -0.0007337742911260
 17       0.0000002471126653
 18      -0.0007337265571909
 19       0.0000002800618322
 20      -0.0023121762444229
 21      -0.0023123189237507
 22      -0.0000007296781188
 23      -0.0023121968569678
 24       0.0005213746254538
 25      -0.0003193132735523
 26      -0.0003192702987160
 27      -0.0000000238068414
 28       0.0021459169160696
 29      -0.0004122402219390
 30       0.0004121484921492
 31       0.0001201284157947
 32       0.0007325348617672
 33       0.0008348011105167
 34      -0.0004945654851648
 35       0.0003098784292469
 36      -0.0004591119275288
 37      -0.0004592500991015
 38      -0.0004592255721313
 39      -0.0009491754711653
 40      -0.0009494277405929
 41      -0.0009493876524356
 42       0.0001344786168951
 43       0.0001345843288127
 44       0.0001345641201810
 45      -0.0000377960261240
 46      -0.0000378613807796
 47      -0.0000378341860511
 48      -0.0000000065810916
 49       0.0000679512834039
 50       0.0000679222696386
 51       0.0000000296839196
 52       0.0000679450082471
 53       0.0000000520979573
 54       0.0005818676220679
 55       0.0005820151450258
 56      -0.0000001205010758
 57       0.0005818789269725
 58       0.0000796826683975
 59      -0.0000487983581958
 60      -0.0000488311392157
 61       0.0000000582240418
 62      -0.0000798311933975
 63      -0.0000630078013288
 64       0.0000629602510827
 65       0.0000907304962090
 66      -0.0110045965569412
 67      -0.0029895291819891
 68      -0.0007277015777290
 69       0.0007225472906811
 70      -0.0007276817311518
 71      -0.0031632764537392
 72       0.0033988812117048
 73      -0.0031630817503487
 74       0.0000158986774668
 75      -0.0009303986904877
 76       0.0010075528104444
 77       0.0000275167995389
 78       0.0010075273015431
 79       0.0000906509172226
 80      -0.0110042126183467
 81      -0.0029895451254821
 82       0.0007225376145144
 83      -0.0007276825874430
 84      -0.0007276997495747
 85       0.0033991065063789
 86      -0.0031628662464968
 87      -0.0031628411711411
 88       0.0000159674056994
 89       0.0010075321192931
 90      -0.0009304124085435
 91      -0.0000276162723448
 92       0.0010075276023926
 93       0.0000906378078628
 94      -0.0110045150235575
 95      -0.0029895363958146
 96      -0.0007277166320992
 97      -0.0007276829684927
 98       0.0007225320121792
 99      -0.0031632120374044
100      -0.0031629245568168
101       0.0033989317191558
102      -0.0000318128696641
103       0.0010075209458806
104       0.0010075341034423
105      -0.0000000358526774
106      -0.0009303977153025
 Sym=     1a
 Ene= -9.45102352752878E+00
 Spin= Alpha
 Occup= 2.000000
  1      -0.0000170241228598
  2       0.0000571818635824
  3      -0.0002418660042816
  4      -0.0039948826479381
  5      -0.0001302981701585
  6      -0.0001303310485968
  7      -0.0001303146664925
  8       0.0008558754317419
  9       0.0008558836966695
 10       0.0008558658703697
 11      -0.0010179110189652
 12      -0.0010176052727956
 13      -0.0010177697182287
 14       0.0000000000799003
 15       0.0000963236796912
 16       0.0000963336346556
 17       0.0000000059707130
 18       0.0000963305632092
 19      -0.0000000255665971
 20       0.0003907357614486
 21       0.0003908651942134
 22      -0.0000001583035442
 23       0.0003908027584653
 24      -0.0000836460745938
 25       0.0000512226726524
 26       0.0000512202422874
 27      -0.0000000205635766
 28       0.0000198594310437
 29       0.0000661476759633
 30      -0.0000661112859799
 31      -0.0050855969004875
 32       0.9146842616432425
 33      -0.0125299076435388
 34       0.1066704746649389
 35       0.0085008577150850
 36      -0.0026833902878179
 37      -0.0026760577210953
 38      -0.0026880319581692
 39       0.0008649265045936
 40       0.0008648361545499
 41       0.0008645643993074
 42      -0.0007176386934283
 43      -0.0007168604088803
 44      -0.0007176377388544
 45      -0.0013165655704679
 46      -0.0013165341834671
 47      -0.0013166608264007
 48      -0.0000000005938566
 49       0.0002513817286231
 50       0.0002508284075741
 51       0.0000005716627004
 52       0.0002510947150358
 53      -0.0000000035721402
 54      -0.0001226931355136
 55      -0.0001223538620241
 56      -0.0000003442692293
 57      -0.0001225170684320
 58      -0.0000742930066704
 59       0.0000455088225834
 60       0.0000454915785977
 61       0.0000000463839594
 62       0.0001361740854786
 63       0.0000587090488519
 64      -0.0000587614889211
 65      -0.0000536721802687
 66       0.0011409668610800
 67      -0.0001777891038343
 68       0.0000213520724765
 69      -0.0000420264530856
 70       0.0000213557129338
 71       0.0001566541983695
 72      -0.0001658770487979
 73       0.0001566381365001
 74      -0.0000070927903554
 75      -0.0000613536752930
 76      -0.0000716818329528
 77      -0.0000122784696971
 78      -0.0000716755487349
 79      -0.0000536617355992
 80       0.0011409521028533
 81      -0.0001775959657671
 82      -0.0000420221437595
 83       0.0000213679822232
 84       0.0000213600083501
 85      -0.0001657638954413
 86       0.0001566310851638
 87       0.0001566385911595
 88      -0.0000070847146029
 89      -0.0000716596479069
 90      -0.0000613546425567
 91       0.0000122728076299
 92      -0.0000716698809323
 93      -0.0000536618208508
 94       0.0011410077844300
 95      -0.0001776699815581
 96       0.0000213509501679
 97       0.0000213637666830
 98      -0.0000420268452053
 99       0.0001566632884017
100       0.0001566378000279
101      -0.0001658196297312
102       0.0000141735143137
103      -0.0000716640772398
104      -0.0000716809763649
105       0.0000000040979256
106      -0.0000613517099914
 Sym=     1a
 Ene= -7.21418229330089E+00
 Spin= Alpha
 Occup= 2.000000
  1       0.0000585188776237
  2       0.0002811722748511
  3      -0.0001279541486376
  4       0.0024544092580351
  5       0.0000070959516651
  6       0.0000070979377896
  7       0.0000070861843597
  8       0.0008196374124645
  9       0.0008195090466665
 10       0.0008195211593626
 11       0.0003604616689398
 12       0.0003604771561516
 13       0.0003605369305154
 14       0.0000000061620322
 15       0.0001182824199437
 16       0.0001183167577848
 17      -0.0000000242854352
 18       0.0001182944096252
 19      -0.0000000739215486
 20       0.0000516773332338
 21       0.0000517358293479
 22       0.0000000687677211
 23       0.0000517043702999
 24       0.0001911949765822
 25      -0.0001170710289646
 26      -0.0001170772099648
 27      -0.0000000050322558
 28      -0.0001873919557465
 29      -0.0001511479945184
 30       0.0001511634462661
 31       0.0000197486787853
 32      -0.0050080509564604
 33       0.0007865226186954
 34      -0.0003187698508632
 35      -0.0020964302095327
 36      -0.5582971954779780
 37      -0.5580519251943786
 38      -0.5582403333945423
 39       0.0017223173626848
 40       0.0017211612762342
 41       0.0017218795352860
 42      -0.0387729678944175
 43      -0.0387551726629531
 44      -0.0387685547672846
 45      -0.0005357938782206
 46      -0.0005352956602844
 47      -0.0005357138262884
 48      -0.0000001881403214
 49       0.0005250535830118
 50       0.0005248524161452
 51       0.0000002064346884
 52       0.0005251143557440
 53       0.0000000609698362
 54      -0.0005759862664666
 55      -0.0005759084103189
 56      -0.0000000785363170
 57      -0.0005760020930430
 58       0.0000313797786418
 59      -0.0000192308607520
 60      -0.0000191924157662
 61      -0.0000001549054696
 62      -0.0000551508818368
 63      -0.0000247007945694
 64       0.0000249032385546
 65       0.0000708807410192
 66      -0.0003272124499016
 67      -0.0002696126712976
 68      -0.0000123491729029
 69      -0.0000649250560446
 70      -0.0000123506794732
 71      -0.0001293004584856
 72      -0.0001990951610314
 73      -0.0001293574310320
 74      -0.0000440141961942
 75      -0.0000547935991538
 76      -0.0000629381179568
 77      -0.0000762331943824
 78      -0.0000629491171248
 79       0.0000708927309894
 80      -0.0003274705021614
 81      -0.0002695100657504
 82      -0.0000649384482136
 83      -0.0000123615778077
 84      -0.0000123584883289
 85      -0.0001990177177704
 86      -0.0001294004090197
 87      -0.0001294158217718
 88      -0.0000440177752792
 89      -0.0000629274693944
 90      -0.0000548283999719
 91       0.0000762466576519
 92      -0.0000629332601327
 93       0.0000708803391585
 94      -0.0003273314754438
 95      -0.0002695766134211
 96      -0.0000123505210109
 97      -0.0000123545937772
 98      -0.0000649269780517
 99      -0.0001293035086886
100      -0.0001293450935554
101      -0.0001990289828634
102       0.0000880183149325
103      -0.0000629363839304
104      -0.0000629315869308
105       0.0000000035490714
106      -0.0000547950591422
 Sym=     1a
 Ene= -7.20519861459070E+00
 Spin= Alpha
 Occup= 2.000000
  1      -0.0000000010291698
  2       0.0000000346998801
  3       0.0000000290023861
  4       0.0000001412416087
  5       0.0000051054430251
  6       0.0000186571850338
  7      -0.0000237123169818
  8       0.0000282868858929
  9       0.0001039422217420
 10      -0.0001322392685584
 11       0.0000081555870924
 12       0.0000300990576738
 13      -0.0000383279018334
 14      -0.0000145624709172
 15       0.0000235887586410
 16       0.0000064394277946
 17      -0.0000048006376444
 18      -0.0000300014833417
 19       0.0006299311831793
 20       0.0001958036536288
 21       0.0000533138444371
 22       0.0002077978181322
 23      -0.0002492639029985
 24       0.0000464428970244
 25      -0.0000014508187762
 26       0.0000171966311400
 27      -0.0000030405792303
 28      -0.0000000398344133
 29       0.0000136664079807
 30      -0.0000327732610153
 31      -0.0000000363715788
 32       0.0000068300673998
 33      -0.0000003323206172
 34       0.0000009973891081
 35      -0.0000001511045983
 36      -0.1608596308106852
 37      -0.5897370442039909
 38       0.7504136049056764
 39       0.0003312514593436
 40       0.0012147374883987
 41      -0.0015460098383284
 42      -0.0109170242144693
 43      -0.0400237304112164
 44       0.0509285847334804
 45      -0.0002746224309587
 46      -0.0010068221302483
 47       0.0012811292011382
 48      -0.0005045687213773
 49      -0.0002328787904003
 50      -0.0000633942157612
 51      -0.0001664153382899
 52       0.0002964384284780
 53       0.0003498523453120
 54       0.0001593234740675
 55       0.0000433816778908
 56       0.0001153787979163
 57      -0.0002027432256021
 58       0.0000224896704329
 59       0.0000293606155984
 60       0.0000286643599515
 61       0.0000107183322590
 62      -0.0000000564970652
 63      -0.0000165937523235
 64       0.0000000036757532
 65       0.0000176381229642
 66      -0.0003231452284888
 67       0.0001594597373830
 68       0.0000011617814805
 69       0.0000030738686934
 70       0.0000017629668074
 71      -0.0000315396249327
 72       0.0003007248027857
 73       0.0000893774549436
 74       0.0000115093929637
 75       0.0000178312001013
 76       0.0000102851330735
 77       0.0000420428437822
 78       0.0000684986822780
 79       0.0000048200166582
 80      -0.0000880647621417
 81       0.0000434770974425
 82       0.0000008320219167
 83      -0.0000000418897765
 84       0.0000008457755534
 85       0.0000819943202758
 86      -0.0000809904586323
 87       0.0000967941669837
 88      -0.0000083360594400
 89      -0.0000320649442312
 90       0.0000048670050924
 91      -0.0000180878322400
 92       0.0000535438644616
 93      -0.0000224244615109
 94       0.0004110414354988
 95      -0.0002030500054458
 96      -0.0000017210626777
 97      -0.0000020053022463
 98      -0.0000039332204635
 99      -0.0000084412338579
100      -0.0000653158145791
101      -0.0003827321689341
102       0.0000536854071081
103      -0.0000638425909375
104      -0.0000364463327845
105      -0.0000052077997302
106      -0.0000227108851873
 Sym=     1a
 Ene= -7.20519857981996E+00
 Spin= Alpha
 Occup= 2.000000
  1       0.0000000593873074
  2       0.0000000522805352
  3      -0.0000000866811568
  4      -0.0000000363265866
  5       0.0000244202331873
  6      -0.0000166841550241
  7      -0.0000078837806511
  8       0.0001362981799640
  9      -0.0000926982264109
 10      -0.0000435606462399
 11       0.0000394845113164
 12      -0.0000267792164183
 13      -0.0000125314194584
 14      -0.0000048074929380
 15      -0.0000210553381739
 16       0.0000309221729516
 17       0.0000145587428180
 18      -0.0000099194244857
 19       0.0002078778169227
 20      -0.0001745219614294
 21       0.0002571104874077
 22      -0.0006299165259761
 23      -0.0000819785427530
 24       0.0000152418665029
 25       0.0000309115246539
 26      -0.0000256202070819
 27       0.0000092317452169
 28       0.0000001141308720
 29       0.0000366834494821
 30       0.0000212233476934
 31      -0.0000000395749562
 32      -0.0000021888603784
 33      -0.0000000801512222
 34      -0.0000000334252766
 35      -0.0000001271137091
 36      -0.7736503344119361
 37       0.5262098163512382
 38       0.2476984619548864
 39       0.0015941517928678
 40      -0.0010836216699603
 41      -0.0005098888277077
 42      -0.0525059491316755
 43       0.0357120054740224
 44       0.0168102185191010
 45      -0.0013207849927475
 46       0.0008983606253117
 47       0.0004228753129481
 48      -0.0001666373044013
 49       0.0002072800740976
 50      -0.0003054257041078
 51       0.0005049023799164
 52       0.0000973439637150
 53       0.0001155178879045
 54      -0.0001420333087100
 55       0.0002088785605598
 56      -0.0003499732049256
 57      -0.0000667793252661
 58       0.0000074303819851
 59       0.0000088063270461
 60       0.0000104559587588
 61      -0.0000323217217196
 62       0.0000001393720752
 63       0.0000227353724372
 64       0.0000279135282653
 65      -0.0000157341848098
 66       0.0002883114147384
 67      -0.0001423077801384
 68      -0.0000016391533558
 69      -0.0000027245838383
 70      -0.0000009656254557
 71      -0.0000935574088637
 72      -0.0002682583518547
 73       0.0000419626555225
 74      -0.0000295256021901
 75      -0.0000159117252963
 76      -0.0000677582992385
 77      -0.0000263672590060
 78      -0.0000025164914359
 79       0.0000231259564312
 80      -0.0004236709828804
 81       0.0002094012285385
 82       0.0000040742815484
 83       0.0000020185942235
 84       0.0000018338949531
 85       0.0003946231175246
 86       0.0000565249639164
 87       0.0000196006041568
 88       0.0000306161146666
 89       0.0000606013538924
 90       0.0000234189148709
 91      -0.0000462629398376
 92       0.0000428116780950
 93      -0.0000074104874977
 94       0.0001356341435195
 95      -0.0000669857892548
 96      -0.0000010436119745
 97      -0.0000001848081054
 98      -0.0000012683697327
 99      -0.0000983754035982
100       0.0000740669702595
101      -0.0001262190303252
102       0.0000176832738909
103       0.0000249843644305
104      -0.0000580472021158
105       0.0000157696217242
106      -0.0000074948568910
 Sym=     1a
 Ene= -8.48265769543747E-01
 Spin= Alpha
 Occup= 2.000000
  1      -0.0172933981456139
  2       0.2365501427417319
  3       0.0568503287029634
  4       0.0729894478637556
  5       0.0240011346544535
  6       0.0240072855309941
  7       0.0239984699102992
  8       0.0325374871535866
  9       0.0325425396392109
 10       0.0325329814149875
 11       0.0050202793455882
 12       0.0050234575425339
 13       0.0050183433631597
 14      -0.0000002954826329
 15       0.0033191572559409
 16       0.0033189495058630
 17       0.0000001092842052
 18       0.0033191184422226
 19      -0.0000013903706704
 20       0.0069705350448691
 21       0.0069741315931968
 22      -0.0000037114974066
 23       0.0069727986444689
 24      -0.0013793672922634
 25       0.0008441566150067
 26       0.0008442871102315
 27      -0.0000008210144061
 28       0.0056144882334217
 29       0.0010909047807015
 30      -0.0010901441880604
 31      -0.0015865972324163
 32      -0.0173289485385715
 33       0.5130895389115111
 34       0.0688739548772484
 35       0.2848956918442124
 36       0.0043318887684048
 37       0.0043289899706718
 38       0.0043321513290253
 39      -0.0447704539134114
 40      -0.0447538467216731
 41      -0.0447829883071264
 42      -0.0216873405363145
 43      -0.0216759232851842
 44      -0.0216925450992352
 45      -0.0070305032995672
 46      -0.0070176295020873
 47      -0.0070414106164631
 48       0.0000001167377752
 49       0.0094548252474405
 50       0.0094515524156139
 51       0.0000034262977077
 52       0.0094529734883030
 53       0.0000008208111780
 54       0.0094631312573278
 55       0.0094595185460226
 56       0.0000037402968985
 57       0.0094604234958127
 58       0.0019915843958875
 59      -0.0012199339470817
 60      -0.0012198009041840
 61      -0.0000003907800173
 62      -0.0037329092730827
 63      -0.0015741783898332
 64       0.0015746403834489
 65       0.0346120544605316
 66       0.0363112890429185
 67       0.0045116700855277
 68       0.0023807355897140
 69      -0.0012586867815954
 70       0.0023808285095473
 71       0.0025788855568920
 72      -0.0004535172526792
 73       0.0025783601377483
 74       0.0002581849764326
 75       0.0008770074515994
 76      -0.0002711285112372
 77       0.0004474145777855
 78      -0.0002711718153484
 79       0.0346079867276556
 80       0.0363014543006676
 81       0.0045092274537741
 82      -0.0012588639707375
 83       0.0023804904573328
 84       0.0023801998085615
 85      -0.0004508861065945
 86       0.0025781905508924
 87       0.0025777069990096
 88       0.0002583746043808
 89      -0.0002709936821229
 90       0.0008767037483073
 91      -0.0004475404008649
 92      -0.0002712048123036
 93       0.0346066790062682
 94       0.0363032851073482
 95       0.0045092783460096
 96       0.0023801372662903
 97       0.0023803186627422
 98      -0.0012589859983167
 99       0.0025780480303494
100       0.0025786795734138
101      -0.0004522785833523
102      -0.0005164060914059
103      -0.0002710746827137
104      -0.0002712772485093
105      -0.0000001221250180
106       0.0008767392910697
 Sym=     1a
 Ene= -6.78220641754348E-01
 Spin= Alpha
 Occup= 2.000000
  1      -0.0238227754328867
  2       0.3688727600065977
  3       0.0951189518062857
  4       0.1756952854245371
  5      -0.0341096211443041
  6      -0.0340947558771799
  7      -0.0341135154477646
  8      -0.0342415007596366
  9      -0.0342298728826281
 10      -0.0342483080135651
 11      -0.0174779928164771
 12      -0.0174709863475150
 13      -0.0174801535427740
 14      -0.0000000042365166
 15      -0.0039964993079141
 16      -0.0039981720024524
 17       0.0000004011821533
 18      -0.0039979669051225
 19       0.0000000437982285
 20      -0.0050116519535487
 21      -0.0050110755747354
 22      -0.0000031972943088
 23      -0.0050130284312873
 24       0.0003567825715138
 25      -0.0002183893738188
 26      -0.0002183081724225
 27      -0.0000004714391587
 28       0.0037663353367569
 29      -0.0002821433369437
 30       0.0002820331380777
 31       0.0017963349496108
 32       0.0113248884395963
 33      -0.3390617044763365
 34      -0.0515289329239187
 35      -0.2349816999360433
 36       0.0041584504512909
 37       0.0041611025541942
 38       0.0041582584984804
 39      -0.0443903451029434
 40      -0.0443984586511052
 41      -0.0443794308220429
 42      -0.0227422781541720
 43      -0.0227502678542819
 44      -0.0227376722162431
 45      -0.0160010340627612
 46      -0.0160144244989167
 47      -0.0159920464199641
 48       0.0000001668203596
 49       0.0047200384526887
 50       0.0047207034586989
 51      -0.0000009130376217
 52       0.0047201595572913
 53       0.0000001571110805
 54       0.0050881092680397
 55       0.0050889658095288
 56      -0.0000011298344316
 57       0.0050885117952451
 58       0.0008099006082340
 59      -0.0004961267795809
 60      -0.0004958020234857
 61      -0.0000009300449551
 62      -0.0015415936291885
 63      -0.0006396446849084
 64       0.0006408504228081
 65       0.0856220658004757
 66       0.0923964815918084
 67       0.0121546467448897
 68       0.0045047338057949
 69      -0.0059639606409362
 70       0.0045049774970872
 71       0.0019794612023504
 72      -0.0043494683542298
 73       0.0019788685400566
 74      -0.0002205151932915
 75       0.0009200113325372
 76      -0.0011793598239858
 77      -0.0003818120146689
 78      -0.0011794336657506
 79       0.0856094380244266
 80       0.0923746176425939