
                                 *****************
                                 * O   R   C   A *
                                 *****************

                                            #,                                       
                                            ###                                      
                                            ####                                     
                                            #####                                    
                                            ######                                   
                                           ########,                                 
                                     ,,################,,,,,                         
                               ,,#################################,,                 
                          ,,##########################################,,             
                       ,#########################################, ''#####,          
                    ,#############################################,,   '####,        
                  ,##################################################,,,,####,       
                ,###########''''           ''''###############################       
              ,#####''   ,,,,##########,,,,          '''####'''          '####       
            ,##' ,,,,###########################,,,                        '##       
           ' ,,###''''                  '''############,,,                           
         ,,##''                                '''############,,,,        ,,,,,,###''
      ,#''                                            '''#######################'''  
     '                                                          ''''####''''         
             ,#######,   #######,   ,#######,      ##                                
            ,#'     '#,  ##    ##  ,#'     '#,    #''#        ,####,   ,####,        
            ##       ##  ##   ,#'  ##            #'  '#       #'       #'  '#        
            ##       ##  #######   ##           ,######,      #####,   #    #        
            '#,     ,#'  ##    ##  '#,     ,#' ,#      #,     #,   #   #,  ,#        
             '#######'   ##     ##  '#######'  #'      '#     '####' # '####'        



                #########################################################
                #                        -***-                          #
                #          Department of theory and spectroscopy        #
                #                                                       #
                #                      Frank Neese                      #
                #                                                       #
                #     Directorship, Architecture, Infrastructure        #
                #                    SHARK, DRIVERS                     #
                #        Core code/Algorithms in most modules           #
                #                                                       #
                #        Max Planck Institute fuer Kohlenforschung      #
                #                Kaiser Wilhelm Platz 1                 #
                #                 D-45470 Muelheim/Ruhr                 #
                #                      Germany                          #
                #                                                       #
                #                  All rights reserved                  #
                #                        -***-                          #
                #########################################################


                         Program Version 6.0.1  -  RELEASE   -


 With contributions from (in alphabetic order):
[Max-Planck-Institut fuer Kohlenforschung]                               
  Daniel Aravena         : Magnetic Suceptibility                        
  Michael Atanasov       : Ab Initio Ligand Field Theory (pilot matlab implementation)
  Alexander A. Auer      : GIAO ZORA, VPT2 properties, NMR spectrum      
  Ute Becker             : All parallelization in ORCA, NUMFREQ, NUMCALC 
  Giovanni Bistoni       : ED, misc. LED, open-shell LED, HFLD           
  Martin Brehm           : Molecular dynamics                            
  Dmytro Bykov           : pre 5.0 version of the SCF Hessian            
  Marcos Casanova-Páez   : Triplet and SCS-CIS(D). UHF-(DLPNO)-IP/EA/STEOM-CCSD. UHF-CVS-IP/STEOM-CCSD   
  Vijay G. Chilkuri      : MRCI spin determinant printing, contributions to CSF-ICE 
  Pauline Colinet        : FMM embedding                                 
  Dipayan Datta          : RHF DLPNO-CCSD density                        
  Achintya Kumar Dutta   : EOM-CC, STEOM-CC                              
  Nicolas Foglia         : Exact transition moments, OPA infrastructure, MCD improvements    
  Dmitry Ganyushin       : Spin-Orbit,Spin-Spin,Magnetic field MRCI      
  Miquel Garcia-Rates    : C-PCM and meta-GGA Hessian, CCSD/C-PCM, Gaussian charge scheme 
  Tiago L. C. Gouveia    : GS-ROHF, GS-ROCIS                             
  Yang Guo               : DLPNO-NEVPT2, F12-NEVPT2, CIM, IAO-localization        
  Andreas Hansen         : Spin unrestricted coupled pair/coupled cluster methods 
  Ingolf Harden          : AUTO-CI MPn and infrastructure                
  Benjamin Helmich-Paris : MC-RPA, TRAH-(SCF,CASSCF), AVAS, COSX integrals, SCF dyn. polar. 
  Lee Huntington         : MR-EOM, pCC                                   
  Robert Izsak           : Overlap fitted RIJCOSX, COSX-SCS-MP3, EOM     
  Riya Kayal             : Wick's Theorem for AUTO-CI, AUTO-CI UHF-CCSDT 
  Emily Kempfer          : AUTO-CI, RHF CISDT and CCSDT                  
  Christian Kollmar      : KDIIS, OOCD, Brueckner-CCSD(T), CCSD density, CASPT2, CASPT2-K, improved NEVPT2 
  Axel Koslowski         : Symmetry handling                             
  Simone Kossmann        : meta-GGA functionals, TD-DFT gradient, OOMP2, (MP2 Hessian; deprecated post 5.0) 
  Lucas Lang             : DCDCAS                                        
  Marvin Lechner         : AUTO-CI (C++ implementation), FIC-MRCC        
  Spencer Leger          : CASSCF response                               
  Dagmar Lenk            : GEPOL surface, SMD, ORCA-2-JSON               
  Dimitrios Liakos       : Extrapolation schemes; Compound Job, initial MDCI parallelization 
  Dimitrios Manganas     : Further ROCIS development; embedding schemes. LFT, Crystal Embedding 
  Dimitrios Pantazis     : SARC Basis sets                               
  Anastasios Papadopoulos: AUTO-CI, single reference methods and gradients 
  Taras Petrenko         : pre 6.0 DFT Hessian and TD-DFT gradient, (ASA, deprecated), ECA, 1-Electron XAS/XES, NRVS 
  Peter Pinski           : DLPNO-MP2, DLPNO-MP2 Gradient                 
  Christoph Reimann      : Effective Core Potentials                     
  Marius Retegan         : Local ZFS, SOC                                
  Christoph Riplinger    : Optimizer, TS searches, QM/MM, DLPNO-CCSD(T), (RO)-DLPNO pert. Triples 
  Michael Roemelt        : Original ROCIS implementation                 
  Masaaki Saitow         : Open-shell DLPNO-CCSD energy and density      
  Barbara Sandhoefer     : DKH picture change effects                    
  Kantharuban Sivalingam : CASSCF convergence/infrastructure, NEVPT2 and variants, FIC-MRCI 
  Bernardo de Souza      : ESD, SOC TD-DFT                               
  Georgi L. Stoychev     : AutoAux, RI-MP2 NMR, DLPNO-MP2 response, X2C  
  Van Anh Tran           : RI-MP2 g-tensors                              
  Willem Van den Heuvel  : Paramagnetic NMR                              
  Zikuan Wang            : NOTCH, Electric field optimization            
  Frank Wennmohs         : Technical directorship and infrastructure     
  Hang Xu                : AUTO-CI-Response properties                   
                                                                         
[FACCTs GmbH]                                                            
  Markus Bursch, Miquel Garcia-Rates, Christoph Riplinger, Bernardo de Souza, Georgi L. Stoychev 
                                                                 
  APM, Basis sets (HGBS, AHGBS, def-TZVP (Ac-Lr), def2-XVPD (La-Lu)), CI-OPT, improved COSX, DLPNO-Multilevel,           
  DOCKER, DRACO, updates on ESD, GOAT, IRC, LR-CPCM, MBIS, meta-GGA TD-DFT gradient, ML-optimized integration grids, 
  MM, NACMEs, nearIR, NEB, NEB-TS, NL-DFT gradient (VV10), 2- and 3-layer-ONIOM, interface openCOSMO-RS, QMMM,   
  Crystal-QMMM, SF, symmetry and pop. for TD-DFT, r2SCAN hybrids, SOLVATOR                                   
                                                                         
[Other institutions]                                                     
  V. Asgeirsson          : NEB                                           
  Christoph Bannwarth    : sTDA-DFT, sTD-DFT, PBEh-3c, B97-3c, D3        
  Sebastian Ehlert       : rSCAN, r2SCAN, r2SCAN-3c, D4, dhf basis sets  
  Marvin Friede          : D4 for Fr, Ra, Ac-Lr                          
  Lars Goerigk           : TD-DFT with DH, B97 family of functionals     
  Stefan Grimme          : VdW corrections, initial TS optimization, DFT functionals, gCP, sTDA/sTD-DF 
  Waldemar Hujo          : DFT-NL                                        
  H. Jonsson             : NEB                                           
  Holger Kruse           : gCP                                           
  Marcel Mueller         : wB97X-3c, vDZP basis set                      
  Hagen Neugebauer       : wr2SCAN                                       
  Tobias Risthaus        : range-separated hybrid DFT                    
  Lukas Wittmann         : regularized MP2, r2SCAN double-hybrids, wr2SCAN        
                                                                         
We gratefully acknowledge several colleagues who have allowed us to      
interface, adapt or use parts of their codes:                            
  Ed Valeev, F. Pavosevic, A. Kumar             : LibInt (2-el integral package), F12 methods 
  Garnet Chan, S. Sharma, J. Yang, R. Olivares  : DMRG                   
  Ulf Ekstrom                                   : XCFun DFT Library      
  Mihaly Kallay                                 : mrcc  (arbitrary order and MRCC methods)
  Frank Weinhold                                : gennbo (NPA and NBO analysis)           
  Simon Mueller                                 : openCOSMO-RS                            
  Christopher J. Cramer and Donald G. Truhlar   : smd solvation model                     
  S Lehtola, MJT Oliveira, MAL Marques          : LibXC Library                           
  Liviu Ungur et al                             : ANISO software                          


 Your calculation uses the libint2 library for the computation of 2-el integrals
 For citations please refer to: http://libint.valeyev.net

 Your ORCA version has been built with support for libXC version: 6.2.2
 For citations please refer to: https://libxc.gitlab.io

 This ORCA versions uses:
   CBLAS   interface :  Fast vector & matrix operations
   LAPACKE interface :  Fast linear algebra routines
   SCALAPACK package :  Parallel linear algebra routines
   Shared memory     :  Shared parallel matrices
   BLAS/LAPACK       :  OpenBLAS 0.3.27  USE64BITINT DYNAMIC_ARCH NO_AFFINITY Haswell SINGLE_THREADED
        Core in use  :  Haswell
   Copyright (c) 2011-2014, The OpenBLAS Project




***************************************
The coordinates will be read from file: CH3Cl.xyz
***************************************


Warning: RI is on but no J-basis has been assigned. Assigning Def2/J (nothing to worry about!)
================================================================================

----- Orbital basis set information -----
Your calculation utilizes the basis: cc-pVTZ 
       H, B-Ne : Obtained from the ccRepo (grant-hill.group.shef.ac.uk/ccrepo) Feb. 2017
                 T. H. Dunning, Jr., J. Chem. Phys. 90, 1007 (1989)
            He : Obtained from the ccRepo (grant-hill.group.shef.ac.uk/ccrepo) Feb. 2017
                 D. E. Woon, T. H. Dunning, Jr., J. Chem. Phys. 100, 2975 (1994)
  Li-Be, Na-Mg : Obtained from the ccRepo (grant-hill.group.shef.ac.uk/ccrepo) Feb. 2017
                 B. P. Prascher, D. E. Woon, K. A. Peterson, T. H. Dunning, Jr., A. K. Wilson, Theor. Chem. Acc. 128, 69 (2011)
         Al-Ar : Obtained from the ccRepo (grant-hill.group.shef.ac.uk/ccrepo) Feb. 2017
                 D. E. Woon, T. H. Dunning, Jr., J. Chem. Phys. 98, 1358 (1993)
            Ca : Obtained from the Peterson Research Group Website (tyr0.chem.wsu.edu/~kipeters) Feb. 2017
                 J. Koput, K. A. Peterson, J. Phys. Chem. 106, 9595 (2002)
         Sc-Zn : Obtained from the ccRepo (grant-hill.group.shef.ac.uk/ccrepo) Feb. 2017
                 N. B. Balabanov, K. A. Peterson, J. Chem. Phys. 123, 064107 (2005)
                 N. B. Balabanov, K. A. Peterson, J. Chem. Phys. 125, 074110 (2006)
         Ga-Kr : Obtained from the ccRepo (grant-hill.group.shef.ac.uk/ccrepo) Feb. 2017
                 A. K. Wilson, D. E. Woon, K. A. Peterson, T. H. Dunning, Jr., J. Chem. Phys. 110, 7667 (1999)
             Y : Obtained from the ccRepo (grant-hill.group.shef.ac.uk/ccrepo) Feb. 2017
                 K. A. Peterson, D. Figgen, M. Dolg, H. Stoll, J. Chem. Phys. 126, 124101 (2007)
        Ag, Au : Obtained from the Peterson Research Group Website (tyr0.chem.wsu.edu/~kipeters) Feb. 2017
                 K. A. Peterson, C. Puzzarini, Theor. Chem. Acc. 114, 283 (2005)

----- AuxJ basis set information -----
Your calculation utilizes the auxiliary basis: def2/J
   F. Weigend, Phys. Chem. Chem. Phys. 8, 1057 (2006).

================================================================================
                                        WARNINGS
                       Please study these warnings very carefully!
================================================================================

WARNING: Old DensityContainer found on disk!
         Will remove this file - 
         If you want to keep old densities, please start your calculation with a different basename. 

INFO   : Checking CIS options ...

WARNING: CIS/ROCIS methods need fully converged wavefunctions
  ===> : Setting SCFConvForced true
         You can overwrite this default with %scf ConvForced false 


================================================================================
                                       INPUT FILE
================================================================================
NAME = CH3Cl.inp
|  1> !B3LYP cc-pvTz
|  2> %TDDFT
|  3> NROOTS  50
|  4> TPrint 0.00001
|  5> TDA TRUE
|  6> END
|  7> * xyzfile 0 1 CH3Cl.xyz
|  8> %scf
|  9> MaxIter 100
| 10> end
| 11> 
| 12>                          ****END OF INPUT****
================================================================================

                       ****************************
                       * Single Point Calculation *
                       ****************************

---------------------------------
CARTESIAN COORDINATES (ANGSTROEM)
---------------------------------
  C      0.006492    0.006492    0.006492
  Cl     1.043081    1.043081    1.043081
  H     -0.611794    0.650772   -0.611794
  H      0.650772   -0.611794   -0.611794
  H     -0.611794   -0.611794    0.650772

----------------------------
CARTESIAN COORDINATES (A.U.)
----------------------------
  NO LB      ZA    FRAG     MASS         X           Y           Z
   0 C     6.0000    0    12.011    0.012268    0.012268    0.012268
   1 Cl   17.0000    0    35.453    1.971137    1.971137    1.971137
   2 H     1.0000    0     1.008   -1.156123    1.229781   -1.156123
   3 H     1.0000    0     1.008    1.229781   -1.156123   -1.156123
   4 H     1.0000    0     1.008   -1.156123   -1.156123    1.229781

--------------------------------
INTERNAL COORDINATES (ANGSTROEM)
--------------------------------
 C      0   0   0     0.000000000000     0.00000000     0.00000000
 Cl     1   0   0     1.795424814567     0.00000000     0.00000000
 H      1   2   0     1.086117799316   108.35152282     0.00000000
 H      1   2   3     1.086117799316   108.35152282   120.00000000
 H      1   2   3     1.086117799316   108.35152282   240.00000000

---------------------------
INTERNAL COORDINATES (A.U.)
---------------------------
 C      0   0   0     0.000000000000     0.00000000     0.00000000
 Cl     1   0   0     3.392861193578     0.00000000     0.00000000
 H      1   2   0     2.052465189885   108.35152282     0.00000000
 H      1   2   3     2.052465189885   108.35152282   120.00000000
 H      1   2   3     2.052465189885   108.35152282   240.00000000

---------------------
BASIS SET INFORMATION
---------------------
There are 3 groups of distinct atoms

 Group   1 Type C   : 18s5p2d1f contracted to 4s3p2d1f pattern {8811/311/11/1}
 Group   2 Type Cl  : 41s16p2d1f contracted to 5s4p2d1f pattern {13131311/7711/11/1}
 Group   3 Type H   : 5s2p1d contracted to 3s2p1d pattern {311/11/1}

Atom   0C    basis set group =>   1
Atom   1Cl   basis set group =>   2
Atom   2H    basis set group =>   3
Atom   3H    basis set group =>   3
Atom   4H    basis set group =>   3
---------------------------------
AUXILIARY/J BASIS SET INFORMATION
---------------------------------
There are 3 groups of distinct atoms

 Group   1 Type C   : 12s5p4d2f1g contracted to 6s4p3d1f1g pattern {711111/2111/211/2/1}
 Group   2 Type Cl  : 14s5p5d2f1g contracted to 8s4p3d1f1g pattern {71111111/2111/311/2/1}
 Group   3 Type H   : 5s2p1d contracted to 3s1p1d pattern {311/2/1}

Atom   0C    basis set group =>   1
Atom   1Cl   basis set group =>   2
Atom   2H    basis set group =>   3
Atom   3H    basis set group =>   3
Atom   4H    basis set group =>   3

Checking for AutoStart:
The File: CH3Cl.gbw exists
Trying to determine its content:
     ... Fine, the file contains calculation information
     ... Fine, the calculation information was read
     ... Fine, the file contains a basis set
     ... Fine, the basis set was read
     ... Fine, the file contains a geometry
     ... Fine, the geometry was read
     ... Fine, the file contains a set of orbitals
     ... Fine, the orbitals can be read
     => possible old guess file was deleted
     => GBW file was renamed to GES file
     => GES file is set as startup file
     => Guess is set to MORead
     ... now leaving AutoStart

------------------------------------------------------------------------------
                             ORCA STARTUP CALCULATIONS
                           -- RI-GTO INTEGRALS CHOSEN --
------------------------------------------------------------------------------
------------------------------------------------------------------------------
                   ___                                                        
                  /   \      - P O W E R E D   B Y -                         
                 /     \                                                     
                 |  |  |   _    _      __       _____    __    __             
                 |  |  |  | |  | |    /  \     |  _  \  |  |  /  |          
                  \  \/   | |  | |   /    \    | | | |  |  | /  /          
                 / \  \   | |__| |  /  /\  \   | |_| |  |  |/  /          
                |  |  |   |  __  | /  /__\  \  |    /   |      \           
                |  |  |   | |  | | |   __   |  |    \   |  |\   \          
                \     /   | |  | | |  |  |  |  | |\  \  |  | \   \       
                 \___/    |_|  |_| |__|  |__|  |_| \__\ |__|  \__/        
                                                                              
                      - O R C A' S   B I G   F R I E N D -                    
                                      &                                       
                       - I N T E G R A L  F E E D E R -                       
                                                                              
 v1 FN, 2020, v2 2021, v3 2022-2024                                           
------------------------------------------------------------------------------


----------------------
SHARK INTEGRAL PACKAGE
----------------------

Number of atoms                             ...      5
Number of basis functions                   ...    137
Number of shells                            ...     61
Maximum angular momentum                    ...      3
Integral batch strategy                     ... SHARK/LIBINT Hybrid
RI-J (if used) integral strategy            ... SPLIT-RIJ (Revised 2003 algorithm where possible)
Printlevel                                  ...      1
Contraction scheme used                     ... PARTIAL GENERAL contraction
Prescreening option                         ... SCHWARTZ
   Thresh                                   ... 1.000e-10
   Tcut                                     ... 1.000e-11
   Tpresel                                  ... 1.000e-11 
Coulomb Range Separation                    ... NOT USED
Exchange Range Separation                   ... NOT USED
Multipole approximations                    ... NOT USED
Finite Nucleus Model                        ... NOT USED
CABS basis                                  ... NOT available
Auxiliary Coulomb fitting basis             ... AVAILABLE
   # of basis functions in Aux-J            ...    133
   # of shells in Aux-J                     ...     47
   Maximum angular momentum in Aux-J        ...      4
Auxiliary J/K fitting basis                 ... NOT available
Auxiliary Correlation fitting basis         ... NOT available
Auxiliary 'external' fitting basis          ... NOT available

Checking pre-screening integrals            ... done (  0.0 sec) Dimension = 61
Save PGC pre-screening integrals            ... done (  0.0 sec) Dimension = 61
Calculate PGC overlap integrals             ... done (  0.0 sec) Dimension = 40
Calculating pre-screening integrals (ORCA)  ... done (  0.1 sec) Dimension = 40
Check shell pair data                       ... done (  0.0 sec)
Shell pair information
Shell pair cut-off parameter TPreSel        ...   1.0e-11
Total number of shell pairs                 ...      1891
Shell pairs after pre-screening             ...      1713
Total number of primitive shell pairs       ...      2427
Primitive shell pairs kept                  ...      2078
          la=0 lb=0:    496 shell pairs
          la=1 lb=0:    543 shell pairs
          la=1 lb=1:    162 shell pairs
          la=2 lb=0:    238 shell pairs
          la=2 lb=1:    126 shell pairs
          la=2 lb=2:     28 shell pairs
          la=3 lb=0:     67 shell pairs
          la=3 lb=1:     36 shell pairs
          la=3 lb=2:     14 shell pairs
          la=3 lb=3:      3 shell pairs

Calculating one electron integrals          ... done (  0.0 sec)
Calculating RI/J V-Matrix + Cholesky decomp.... done (  0.0 sec)
Calculating Nuclear repulsion               ... done (  0.0 sec) ENN=     51.095130788567 Eh

Diagonalization of the overlap matrix:
Smallest eigenvalue                        ... 1.808e-03
Time for diagonalization                   ...    0.002 sec
Threshold for overlap eigenvalues          ... 1.000e-07
Number of eigenvalues below threshold      ... 0
Time for construction of square roots      ...    0.000 sec
Total time needed                          ...    0.002 sec

-------------------
DFT GRID GENERATION
-------------------

General Integration Accuracy     IntAcc      ... 4.388
Radial Grid Type                 RadialGrid  ... OptM3 with GC (2021)
Angular Grid (max. ang.)         AngularGrid ... 4 (Lebedev-302)
Angular grid pruning method      GridPruning ... 4 (adaptive)
Weight generation scheme         WeightScheme... mBecke (2022)
Basis function cutoff            BFCut       ... 1.0000e-10
Integration weight cutoff        WCut        ... 1.0000e-14
Partially contracted basis set               ... off
Rotationally invariant grid construction     ... off
Angular grids for H and He will be reduced by one unit

Total number of grid points                  ...    23298
Total number of batches                      ...      367
Average number of points per batch           ...       63
Average number of grid points per atom       ...     4660

---------------------
SHARK GRID GENERATION
---------------------

General Integration Accuracy     IntAcc      ... 4.388
Radial Grid Type                 RadialGrid  ... OptM3 with GC (2021)
Angular Grid (max. ang.)         AngularGrid ... 4 (Lebedev-302)
Angular grid pruning method      GridPruning ... 4 (adaptive)
Weight generation scheme         WeightScheme... mBecke (2022)
Basis function cutoff            BFCut       ... 1.0000e-10
Integration weight cutoff        WCut        ... 1.0000e-14
Partially contracted basis set               ... off
Rotationally invariant grid construction     ... off
Angular grids for H and He will be reduced by one unit
Core-polarized basis detected: some atoms will have their core
                               angular grid increased.
Steep s-basis detected: some atoms will have their radial
                        grid points doubled.

Total number of grid points                  ...    41454
Total number of batches                      ...      650
Average number of points per batch           ...       63
Average number of grid points per atom       ...     8291

--------------------
COSX GRID GENERATION
--------------------

GRIDX 1
-------
General Integration Accuracy     IntAcc      ... 3.816
Radial Grid Type                 RadialGrid  ... OptM3 with GC (2021)
Angular Grid (max. ang.)         AngularGrid ... 1 (Lebedev-50)
Angular grid pruning method      GridPruning ... 4 (adaptive)
Weight generation scheme         WeightScheme... mBecke (2022)
Basis function cutoff            BFCut       ... 1.0000e-10
Integration weight cutoff        WCut        ... 1.0000e-14
Partially contracted basis set               ... on
Rotationally invariant grid construction     ... off
Angular grids for H and He will be reduced by one unit

Total number of grid points                  ...     4010
Total number of batches                      ...       34
Average number of points per batch           ...      117
Average number of grid points per atom       ...      802
UseSFitting                                  ... on

GRIDX 2
-------
General Integration Accuracy     IntAcc      ... 4.020
Radial Grid Type                 RadialGrid  ... OptM3 with GC (2021)
Angular Grid (max. ang.)         AngularGrid ... 2 (Lebedev-110)
Angular grid pruning method      GridPruning ... 4 (adaptive)
Weight generation scheme         WeightScheme... mBecke (2022)
Basis function cutoff            BFCut       ... 1.0000e-10
Integration weight cutoff        WCut        ... 1.0000e-14
Partially contracted basis set               ... on
Rotationally invariant grid construction     ... off
Angular grids for H and He will be reduced by one unit

Total number of grid points                  ...     6190
Total number of batches                      ...       51
Average number of points per batch           ...      121
Average number of grid points per atom       ...     1238
UseSFitting                                  ... on

GRIDX 3
-------
General Integration Accuracy     IntAcc      ... 4.338
Radial Grid Type                 RadialGrid  ... OptM3 with GC (2021)
Angular Grid (max. ang.)         AngularGrid ... 3 (Lebedev-194)
Angular grid pruning method      GridPruning ... 4 (adaptive)
Weight generation scheme         WeightScheme... mBecke (2022)
Basis function cutoff            BFCut       ... 1.0000e-10
Integration weight cutoff        WCut        ... 1.0000e-14
Partially contracted basis set               ... on
Rotationally invariant grid construction     ... off
Angular grids for H and He will be reduced by one unit

Total number of grid points                  ...    14380
Total number of batches                      ...      116
Average number of points per batch           ...      123
Average number of grid points per atom       ...     2876
UseSFitting                                  ... on
Initializing property integral containers    ... done (  0.0 sec)

SHARK setup successfully completed in   0.5 seconds

Maximum memory used throughout the entire STARTUP-calculation: 51.2 MB
-------------------------------------------------------------------------------
                                 ORCA GUESS
                   Start orbitals & Density for SCF / CASSCF
-------------------------------------------------------------------------------

------------
SCF SETTINGS
------------
Hamiltonian:
 Density Functional     Method          .... DFT(GTOs)
 Exchange Functional    Exchange        .... B88
   X-Alpha parameter    XAlpha          ....  0.666667
   Becke's b parameter  XBeta           ....  0.004200
 Correlation Functional Correlation     .... LYP
 LDA part of GGA corr.  LDAOpt          .... VWN-5
 Gradients option       PostSCFGGA      .... off
 Hybrid DFT is turned on
   Fraction HF Exchange ScalHFX         ....  0.200000
   Scaling of DF-GGA-X  ScalDFX         ....  0.720000
   Scaling of DF-GGA-C  ScalDFC         ....  0.810000
   Scaling of DF-LDA-C  ScalLDAC        ....  1.000000
   Perturbative correction              ....  0.000000
   NL short-range parameter             ....  4.800000
 RI-approximation to the Coulomb term is turned on
   Number of AuxJ basis functions       .... 133
   RIJ-COSX (HFX calculated with COS-X)).... on


General Settings:
 Integral files         IntName         .... CH3Cl
 Hartree-Fock type      HFTyp           .... RHF
 Total Charge           Charge          ....    0
 Multiplicity           Mult            ....    1
 Number of Electrons    NEL             ....   26
 Basis Dimension        Dim             ....  106
 Nuclear Repulsion      ENuc            ....     51.0951307886 Eh

Convergence Acceleration:
 AO-DIIS                CNVDIIS         .... on
   Start iteration      DIISMaxIt       ....    12
   Startup error        DIISStart       ....  0.200000
   # of expansion vecs  DIISMaxEq       ....     5
   Bias factor          DIISBfac        ....   1.050
   Max. coefficient     DIISMaxC        ....  10.000
 MO-DIIS                CNVKDIIS        .... off
 Trust-Rad. Augm. Hess. CNVTRAH         .... auto
   Auto Start mean grad. ratio tolernc. ....  1.125000
   Auto Start start iteration           ....     1
   Auto Start num. interpolation iter.  ....    10
   Max. Number of Micro iterations      ....    24
   Max. Number of Macro iterations      .... Maxiter - #DIIS iter
   Number of Davidson start vectors     ....     2
   Converg. threshold    (grad. norm)   ....   5.000e-05
   Grad. Scal. Fac. for Micro threshold ....   0.100
   Minimum threshold for Micro iter.    ....   1.000e-02
   NR start threshold (gradient norm)   ....   1.000e-04
   Initial trust radius                 ....   0.400
   Minimum AH scaling param. (alpha)    ....   1.000
   Maximum AH scaling param. (alpha)    .... 1000.000
   Quad. conv. algorithm                .... NR
   White noise on init. David. guess    .... on
   Maximum white noise                  ....   0.010
   Pseudo random numbers                .... off
   Inactive MOs                         .... canonical
   Orbital update algorithm             .... Taylor
   Preconditioner                       .... Diag
   Full preconditioner red. dimension   ....   250
 SOSCF                  CNVSOSCF        .... on
   Start iteration      SOSCFMaxIt      ....   150
   Startup grad/error   SOSCFStart      ....  0.003300
   Hessian update       SOSCFHessUp     .... L-BFGS
 Level Shifting         CNVShift        .... on
   Level shift para.    LevelShift      ....    0.2500
   Turn off err/grad.   ShiftErr        ....    0.0010
 Zerner damping         CNVZerner       .... off
 Static damping         CNVDamp         .... on
   Fraction old density DampFac         ....    0.7000
   Max. Damping (<1)    DampMax         ....    0.9800
   Min. Damping (>=0)   DampMin         ....    0.0000
   Turn off err/grad.   DampErr         ....    0.1000

SCF Procedure:
 Maximum # iterations   MaxIter         ....   100
 SCF integral mode      SCFMode         .... Direct
   Integral package                     .... SHARK and LIBINT hybrid scheme
 Reset frequency        DirectResetFreq ....    20
 Integral Threshold     Thresh          ....  1.000e-10 Eh
 Primitive CutOff       TCut            ....  1.000e-11 Eh

Convergence Tolerance:
 Convergence Check Mode ConvCheckMode   .... Total+1el-Energy
 Convergence forced     ConvForced      .... 1
 Energy Change          TolE            ....  1.000e-06 Eh
 1-El. energy change                    ....  1.000e-03 Eh
 Orbital Gradient       TolG            ....  5.000e-05
 Orbital Rotation angle TolX            ....  5.000e-05
 DIIS Error             TolErr          ....  1.000e-06

---------------------
INITIAL GUESS: MOREAD
---------------------
Guess MOs are being read from file: CH3Cl.ges
Input geometry compatible with but different from current geometry
Input basis set matches current basis set (good)
Occupation numbers will be reassigned to an Aufbau configuration
MOs were renormalized
MOs were reorthogonalized (Cholesky)
                      ------------------
                      INITIAL GUESS DONE (   0.0 sec)
                      ------------------
             **** ENERGY FILE WAS UPDATED (CH3Cl.en.tmp) ****
Finished Guess after   0.0 sec
Maximum memory used throughout the entire GUESS-calculation: 10.0 MB

-------------------------------------------------------------------------------------------
                                      ORCA LEAN-SCF
                              memory conserving SCF solver
-------------------------------------------------------------------------------------------

----------------------------------------D-I-I-S--------------------------------------------
Iteration    Energy (Eh)           Delta-E    RMSDP     MaxDP     DIISErr   Damp  Time(sec)
-------------------------------------------------------------------------------------------
               ***  Starting incremental Fock matrix formation  ***
    1    -499.1738418581404062     0.00e+00  3.83e-03  6.24e-02  4.27e-01  0.700   0.4
    2    -499.4106655496214557    -2.37e-01  3.49e-03  6.21e-02  3.35e-01  0.700   0.3
    3    -499.5947560548170827    -1.84e-01  2.73e-03  4.87e-02  2.50e-01  0.700   0.3
                               ***Turning on AO-DIIS***
    4    -499.7291572816894245    -1.34e-01  2.16e-03  3.73e-02  1.84e-01  0.700   0.3
    5    -499.8261105465132346    -9.70e-02  1.59e-03  2.76e-02  1.31e-01  0.700   0.3
    6    -499.8961357429779468    -7.00e-02  1.16e-03  2.00e-02  9.30e-02  0.700   0.3
    7    -499.9463033912194874    -5.02e-02  2.79e-03  4.76e-02  6.55e-02  0.000   0.3
    8    -500.0664925943045205    -1.20e-01  1.79e-04  4.04e-03  3.75e-03  0.000   0.3
                              *** Initializing SOSCF ***
---------------------------------------S-O-S-C-F--------------------------------------
Iteration    Energy (Eh)           Delta-E    RMSDP     MaxDP     MaxGrad    Time(sec)
--------------------------------------------------------------------------------------
    9    -500.0665426511963574    -5.01e-05  5.84e-05  9.13e-04  2.24e-03     0.3
               *** Restarting incremental Fock matrix formation ***
   10    -500.0665472846738453    -4.63e-06  5.81e-05  1.20e-03  4.30e-04     0.4
   11    -500.0665474337058072    -1.49e-07  2.21e-05  4.71e-04  5.13e-04     0.3
                 **** Energy Check signals convergence ****

               *****************************************************
               *                     SUCCESS                       *
               *           SCF CONVERGED AFTER  11 CYCLES          *
               *****************************************************

Recomputing exchange energy using gridx3       ... done (    0.567 sec)
Old exchange energy                            :     -6.751311938 Eh
New exchange energy                            :     -6.751244197 Eh
Exchange energy change after final integration :      0.000067741 Eh
Total energy after final integration           :   -500.066479693 Eh
             **** ENERGY FILE WAS UPDATED (CH3Cl.en.tmp) ****

----------------
TOTAL SCF ENERGY
----------------

Total Energy       :       -500.06647969301702 Eh          -13607.50070 eV

Components:
Nuclear Repulsion  :         51.09513078856735 Eh            1390.36919 eV
Electronic Energy  :       -551.16167822227317 Eh          -14997.87174 eV
One Electron Energy:       -789.88336479966517 Eh          -21493.81908 eV
Two Electron Energy:        238.72168657739198 Eh            6495.94734 eV

Virial components:
Potential Energy   :       -998.67881933143053 Eh          -27175.43225 eV
Kinetic Energy     :        498.61233963841346 Eh           13567.93154 eV
Virial Ratio       :          2.00291637398236

DFT components:
N(Alpha)           :       13.000007983230 electrons
N(Beta)            :       13.000007983230 electrons
N(Total)           :       26.000015966461 electrons
E(X)               :      -26.783790159971 Eh       
E(C)               :       -1.154556639328 Eh       
E(XC)              :      -27.938346799300 Eh       

---------------
SCF CONVERGENCE
---------------

  Last Energy change         ...    1.4903e-07  Tolerance :   1.0000e-06
  Last MAX-Density change    ...    4.7106e-04  Tolerance :   1.0000e-05
  Last RMS-Density change    ...    2.2102e-05  Tolerance :   1.0000e-06
  Last DIIS Error            ...    2.2433e-03  Tolerance :   1.0000e-06
  Last Orbital Gradient      ...    5.1315e-04  Tolerance :   5.0000e-05
  Last Orbital Rotation      ...    5.1388e-04  Tolerance :   5.0000e-05


----------------
ORBITAL ENERGIES
----------------

  NO   OCC          E(Eh)            E(eV) 
   0   2.0000    -101.545845     -2763.2029 
   1   2.0000     -10.227869      -278.3145 
   2   2.0000      -9.451024      -257.1754 
   3   2.0000      -7.214182      -196.3079 
   4   2.0000      -7.205199      -196.0634 
   5   2.0000      -7.205199      -196.0634 
   6   2.0000      -0.848266       -23.0825 
   7   2.0000      -0.678221       -18.4553 
   8   2.0000      -0.450905       -12.2697 
   9   2.0000      -0.450893       -12.2694 
  10   2.0000      -0.411271       -11.1912 
  11   2.0000      -0.297531        -8.0962 
  12   2.0000      -0.297529        -8.0962 
  13   0.0000       0.013834         0.3765 
  14   0.0000       0.053983         1.4689 
  15   0.0000       0.097058         2.6411 
  16   0.0000       0.097066         2.6413 
  17   0.0000       0.223286         6.0759 
  18   0.0000       0.245810         6.6888 
  19   0.0000       0.245816         6.6890 
  20   0.0000       0.310576         8.4512 
  21   0.0000       0.363558         9.8929 
  22   0.0000       0.363559         9.8929 
  23   0.0000       0.391764        10.6604 
*Only the first 10 virtual orbitals were printed.

                    ********************************
                    * MULLIKEN POPULATION ANALYSIS *
                    ********************************

-----------------------
MULLIKEN ATOMIC CHARGES
-----------------------
   0 C :   -0.207953
   1 Cl:   -0.166265
   2 H :    0.124759
   3 H :    0.124738
   4 H :    0.124722
Sum of atomic charges:    0.0000000

--------------------------------
MULLIKEN REDUCED ORBITAL CHARGES
--------------------------------
  0 C s       :     3.269023  s :     3.269023
      pz      :     0.952909  p :     2.858746
      px      :     0.952923
      py      :     0.952914
      dz2     :     0.010390  d :     0.076192
      dxz     :     0.018470
      dyz     :     0.018472
      dx2y2   :     0.010390
      dxy     :     0.018470
      f0      :     0.000230  f :     0.003992
      f+1     :     0.000408
      f-1     :     0.000408
      f+2     :     0.000515
      f-2     :     0.001758
      f+3     :     0.000337
      f-3     :     0.000337

  1 Cls       :     5.931490  s :     5.931490
      pz      :     3.727467  p :    11.182449
      px      :     3.727484
      py      :     3.727499
      dz2     :     0.006576  d :     0.048008
      dxz     :     0.011619
      dyz     :     0.011618
      dx2y2   :     0.006577
      dxy     :     0.011618
      f0      :     0.000424  f :     0.004318
      f+1     :     0.000520
      f-1     :     0.000520
      f+2     :     0.000577
      f-2     :     0.001314
      f+3     :     0.000481
      f-3     :     0.000482

  2 H s       :     0.841907  s :     0.841907
      pz      :     0.011612  p :     0.030916
      px      :     0.011613
      py      :     0.007692
      dz2     :     0.000503  d :     0.002418
      dxz     :     0.000519
      dyz     :     0.000452
      dx2y2   :     0.000492
      dxy     :     0.000452

  3 H s       :     0.841927  s :     0.841927
      pz      :     0.011614  p :     0.030917
      px      :     0.007690
      py      :     0.011613
      dz2     :     0.000503  d :     0.002418
      dxz     :     0.000452
      dyz     :     0.000519
      dx2y2   :     0.000492
      dxy     :     0.000452

  4 H s       :     0.841942  s :     0.841942
      pz      :     0.007691  p :     0.030919
      px      :     0.011614
      py      :     0.011614
      dz2     :     0.000487  d :     0.002418
      dxz     :     0.000452
      dyz     :     0.000452
      dx2y2   :     0.000509
      dxy     :     0.000519



                     *******************************
                     * LOEWDIN POPULATION ANALYSIS *
                     *******************************

----------------------
LOEWDIN ATOMIC CHARGES
----------------------
   0 C :   -0.054731
   1 Cl:    0.177161
   2 H :   -0.040799
   3 H :   -0.040814
   4 H :   -0.040816

-------------------------------
LOEWDIN REDUCED ORBITAL CHARGES
-------------------------------
  0 C s       :     2.726124  s :     2.726124
      pz      :     0.982195  p :     2.946592
      px      :     0.982205
      py      :     0.982192
      dz2     :     0.036058  d :     0.349831
      dxz     :     0.092570
      dyz     :     0.092573
      dx2y2   :     0.036058
      dxy     :     0.092571
      f0      :     0.005603  f :     0.032184
      f+1     :     0.003917
      f-1     :     0.003917
      f+2     :     0.002905
      f-2     :     0.006660
      f+3     :     0.004591
      f-3     :     0.004591

  1 Cls       :     5.681490  s :     5.681490
      pz      :     3.682903  p :    11.048741
      px      :     3.682910
      py      :     3.682928
      dz2     :     0.013380  d :     0.083002
      dxz     :     0.018747
      dyz     :     0.018747
      dx2y2   :     0.013380
      dxy     :     0.018747
      f0      :     0.000853  f :     0.009607
      f+1     :     0.001299
      f-1     :     0.001299
      f+2     :     0.001568
      f-2     :     0.002346
      f+3     :     0.001121
      f-3     :     0.001121

  2 H s       :     0.851764  s :     0.851764
      pz      :     0.054513  p :     0.159545
      px      :     0.054515
      py      :     0.050516
      dz2     :     0.005947  d :     0.029490
      dxz     :     0.005930
      dyz     :     0.006135
      dx2y2   :     0.005342
      dxy     :     0.006135

  3 H s       :     0.851775  s :     0.851775
      pz      :     0.054517  p :     0.159549
      px      :     0.050517
      py      :     0.054515
      dz2     :     0.005948  d :     0.029490
      dxz     :     0.006135
      dyz     :     0.005930
      dx2y2   :     0.005342
      dxy     :     0.006135

  4 H s       :     0.851778  s :     0.851778
      pz      :     0.050517  p :     0.159548
      px      :     0.054517
      py      :     0.054515
      dz2     :     0.005039  d :     0.029490
      dxz     :     0.006135
      dyz     :     0.006135
      dx2y2   :     0.006250
      dxy     :     0.005930



                      *****************************
                      * MAYER POPULATION ANALYSIS *
                      *****************************

  NA   - Mulliken gross atomic population
  ZA   - Total nuclear charge
  QA   - Mulliken gross atomic charge
  VA   - Mayer's total valence
  BVA  - Mayer's bonded valence
  FA   - Mayer's free valence

  ATOM       NA         ZA         QA         VA         BVA        FA
  0 C      6.2080     6.0000    -0.2080     3.8913     3.8913     0.0000
  1 Cl    17.1663    17.0000    -0.1663     1.0287     1.0287     0.0000
  2 H      0.8752     1.0000     0.1248     0.9780     0.9780     0.0000
  3 H      0.8753     1.0000     0.1247     0.9780     0.9780     0.0000
  4 H      0.8753     1.0000     0.1247     0.9780     0.9780     0.0000

  Mayer bond orders larger than 0.100000
B(  0-C ,  1-Cl) :   1.0011 B(  0-C ,  2-H ) :   0.9634 B(  0-C ,  3-H ) :   0.9634 
B(  0-C ,  4-H ) :   0.9634 

-------
TIMINGS
-------

Total SCF time: 0 days 0 hours 0 min 3 sec 

Total time                  ....       3.907 sec
Sum of individual times     ....       3.899 sec  ( 99.8%)

SCF preparation             ....       0.042 sec  (  1.1%)
Fock matrix formation       ....       3.818 sec  ( 97.7%)
  Startup                   ....       0.001 sec  (  0.0% of F)
  Split-RI-J                ....       0.173 sec  (  4.5% of F)
  Chain of spheres X        ....       2.727 sec  ( 71.4% of F)
  XC integration            ....       0.901 sec  ( 23.6% of F)
    XC Preparation          ....       0.000 sec  (  0.0% of XC)
    Basis function eval.    ....       0.326 sec  ( 36.1% of XC)
    Density eval.           ....       0.191 sec  ( 21.2% of XC)
    XC-Functional eval.     ....       0.051 sec  (  5.6% of XC)
    XC-Potential eval.      ....       0.293 sec  ( 32.5% of XC)
Diagonalization             ....       0.000 sec  (  0.0%)
Density matrix formation    ....       0.004 sec  (  0.1%)
Total Energy calculation    ....       0.001 sec  (  0.0%)
Population analysis         ....       0.002 sec  (  0.1%)
Orbital Transformation      ....       0.012 sec  (  0.3%)
Orbital Orthonormalization  ....       0.000 sec  (  0.0%)
DIIS solution               ....       0.016 sec  (  0.4%)
SOSCF solution              ....       0.003 sec  (  0.1%)
Finished LeanSCF after   3.9 sec

Maximum memory used throughout the entire LEANSCF-calculation: 11.5 MB

------------------------------------------------------------------------------
                         ORCA PROPERTY INTEGRAL CALCULATIONS
------------------------------------------------------------------------------

GBWName                                   ... CH3Cl.gbw
Number of atoms                           ...      5
Number of basis functions                 ...    137
Max core memory                           ...   1024 MB

Dipole integrals                          ... YES
Quadrupole integrals                      ...  NO
Linear momentum integrals                 ... YES
Angular momentum integrals                ... YES
Higher moments length integrals           ...  NO
Higher moments velocity integrals         ...  NO
Kinetic energy integrals                  ...  NO
GIAO right hand sides                     ...  NO
GIAO dipole derivative integrals          ...  NO
SOC integrals                             ...  NO
EPR diamagnetic integrals (GIAO)          ...  NO
EPR gauge integrals                       ...  NO
Field gradient integrals                  ...  NO (   0 nuclei)
Spin-dipole/Fermi contact integrals       ...  NO (   0 nuclei)
Contact density integrals                 ...  NO (   0 nuclei)
Nucleus-orbit integrals                   ...  NO (   0 nuclei)
Geometric perturbations                   ...  NO (   5 nuclei)

Choice of electric origin   ... Center of mass
Position of electric origin ... (  1.3655,  1.3655,  1.3655) 
Choice of magnetic origin   ... GIAO
Position of magnetic origin ... (  0.0000,  0.0000,  0.0000) 

Calculating integrals                     ... Electric Dipole (Length)     done (  0.0 sec)
Calculating integrals                     ... Linear Momentum              done (  0.0 sec)
Calculating integrals                     ... Angular Momentum  (ElOri)    done (  0.0 sec)

Property integrals calculated in   0.0 sec

Maximum memory used throughout the entire PROPINT-calculation: 10.2 MB
------------------------------------------------------------------------------
                        ORCA TD-DFT/TDA CALCULATION
------------------------------------------------------------------------------

Input orbitals are from        ... CH3Cl.gbw
CI-vector output               ... CH3Cl.cis
Solver                         ... FN-2001
Tamm-Dancoff approximation     ... operative
CIS-Integral strategy          ... AO-integrals
Integral handling              ... AO integral Direct
Max. core memory used          ... 512 MB
Reference state                ... RHF
Generation of triplets         ... off
Follow IRoot                   ... off
Number of operators            ... 1
Orbital ranges used for CIS calculation:
 Operator 0:  Orbitals   6... 12  to  13...105
XAS localization array:
 Operator 0:  Orbitals  -1... -1

-------------------
XC-INTEGRATION GRID
-------------------

General Integration Accuracy     IntAcc      ... 3.467
Radial Grid Type                 RadialGrid  ... OptM3 with GC (2021)
Angular Grid (max. ang.)         AngularGrid ... 1 (Lebedev-50)
Angular grid pruning method      GridPruning ... 4 (adaptive)
Weight generation scheme         WeightScheme... mBecke (2022)
Basis function cutoff            BFCut       ... 1.0000e-10
Integration weight cutoff        WCut        ... 1.0000e-14
Partially contracted basis set               ... off
Rotationally invariant grid construction     ... off
Angular grids for H and He will be reduced by one unit

Total number of grid points                  ...     4122
Total number of batches                      ...       67
Average number of points per batch           ...       61
Average number of grid points per atom       ...      824

---------------------
COSX-INTEGRATION GRID
---------------------

General Integration Accuracy     IntAcc      ... 3.067
Radial Grid Type                 RadialGrid  ... OptM3 with GC (2021)
Angular Grid (max. ang.)         AngularGrid ... 1 (Lebedev-50)
Angular grid pruning method      GridPruning ... 4 (adaptive)
Weight generation scheme         WeightScheme... mBecke (2022)
Basis function cutoff            BFCut       ... 1.0000e-10
Integration weight cutoff        WCut        ... 1.0000e-14
Partially contracted basis set               ... on
Rotationally invariant grid construction     ... off
Angular grids for H and He will be reduced by one unit

Total number of grid points                  ...     2305
Total number of batches                      ...       21
Average number of points per batch           ...      109
Average number of grid points per atom       ...      461

---------------
TD-DFT XC SETUP
---------------

DFT calculation                         ... on
Name of the grid file                   ... CH3Cl.grid_cis.tmp
RI-approximation                        ... on
Aux-basis dimension                     ... 0
Exchange functional (TD-DFT)            ... B88
   X-Alpha parameter    XAlpha (TD-DFT) ...  0.666667
   Becke's b parameter  XBeta (TD-DFT)  ...  0.004200
Correlation functional (TD-DFT)         ... LYP
 LDA part of GGA corr.  LDAOpt (TD-DFT) ... VWN-5
Hybrid DFT                              ... on
   Exchange mixing (TD-DFT)             ...  0.200
   GGA exch. scaling (TD-DFT)           ...  0.720
   GGA corr. scaling (TD-DFT)           ...  0.810

Building densities             ... done
Calculating rho(r) on the grid ... done
Building xc-kernel on the grid ... done
                    *** TD-DFT CALCULATION INITIALIZED ***

------------------------
DAVIDSON-DIAGONALIZATION
------------------------

Dimension of the eigenvalue problem            ...    651
Number of roots to be determined               ...     50
Maximum size of the expansion space            ...    500
Maximum number of iterations                   ...    100
Convergence tolerance for the residual         ...    1.000e-06
Convergence tolerance for the energies         ...    1.000e-06
Orthogonality tolerance                        ...    1.000e-14
Level Shift                                    ...    0.000e+00
Constructing the preconditioner                ... o.k.
Building the initial guess                     ... o.k.
Number of trial vectors determined             ...    500


                       ****Iteration    0****
   Time for iteration     :  TOTAL=3.6 TRAFO=0.0 RIJ=0.2 COSX=1.7 XC=1.7
   Size of expansion space: 150
   Lowest Energy          :     0.265316113278
   Maximum Energy change  :     0.708414710529 (vector 49)
   Maximum residual norm  :     0.001860589733

                       ****Iteration    1****
   Time for iteration     :  TOTAL=1.3 TRAFO=0.0 RIJ=0.1 COSX=0.7 XC=0.6
   Size of expansion space: 200
   Lowest Energy          :     0.264674206014
   Maximum Energy change  :     0.001401742380 (vector 25)
   Maximum residual norm  :     0.000002112516

                       ****Iteration    2****
   Time for iteration     :  TOTAL=1.3 TRAFO=0.0 RIJ=0.1 COSX=0.7 XC=0.6
   Size of expansion space: 250
   Lowest Energy          :     0.264673997358
   Maximum Energy change  :     0.000001152145 (vector 37)
   Maximum residual norm  :     0.000000001027

      *** CONVERGENCE OF RESIDUAL NORM REACHED ***

Storing the converged CI vectors               ... CH3Cl.cis1

                 *** DAVIDSON DONE ***

Total time for solving the CIS problem:     6.541sec

------------------------------------
TD-DFT/TDA EXCITED STATES (SINGLETS)
------------------------------------

the weight of the individual excitations are printed if larger than 1.0e-05

STATE  1:  E=   0.264674 au      7.202 eV    58089.2 cm**-1 <S**2> =   0.000000 Mult 1
     6a ->  16a  :     0.000060 (c=  0.00775612)
     6a ->  22a  :     0.000241 (c=  0.01551277)
     6a ->  24a  :     0.000060 (c=  0.00774090)
     6a ->  28a  :     0.000018 (c= -0.00420408)
     6a ->  33a  :     0.000018 (c= -0.00428742)
     7a ->  18a  :     0.000011 (c=  0.00333679)
     7a ->  22a  :     0.000038 (c= -0.00612855)
     7a ->  24a  :     0.000020 (c=  0.00451828)
     8a ->  16a  :     0.000032 (c=  0.00567341)
     8a ->  18a  :     0.000015 (c=  0.00389397)
     8a ->  24a  :     0.000051 (c= -0.00716205)
     8a ->  27a  :     0.000021 (c= -0.00462669)
     8a ->  28a  :     0.000106 (c= -0.01029452)
     9a ->  13a  :     0.000018 (c= -0.00420777)
     9a ->  14a  :     0.000023 (c=  0.00476652)
     9a ->  15a  :     0.000032 (c= -0.00567531)
     9a ->  19a  :     0.000015 (c=  0.00389562)
     9a ->  20a  :     0.000011 (c= -0.00338099)
     9a ->  23a  :     0.000051 (c= -0.00716098)
     9a ->  26a  :     0.000021 (c=  0.00462495)
     9a ->  29a  :     0.000106 (c= -0.01029614)
     9a ->  30a  :     0.000021 (c=  0.00460800)
     9a ->  31a  :     0.000022 (c=  0.00474171)
    10a ->  16a  :     0.000368 (c= -0.01917117)
    10a ->  18a  :     0.000085 (c= -0.00920852)
    10a ->  22a  :     0.000251 (c= -0.01582965)
    10a ->  24a  :     0.000272 (c= -0.01650612)
    10a ->  27a  :     0.000031 (c= -0.00558421)
    10a ->  28a  :     0.000059 (c=  0.00765321)
    10a ->  33a  :     0.000040 (c=  0.00636349)
    10a ->  45a  :     0.000021 (c= -0.00458015)
    10a ->  51a  :     0.000032 (c=  0.00562268)
    11a ->  13a  :     0.000016 (c= -0.00400591)
    11a ->  15a  :     0.000029 (c=  0.00538248)
    11a ->  16a  :     0.000374 (c=  0.01935060)
    11a ->  18a  :     0.000118 (c=  0.01085342)
    11a ->  19a  :     0.000010 (c= -0.00316431)
    11a ->  22a  :     0.000013 (c= -0.00354461)
    11a ->  24a  :     0.000247 (c= -0.01571345)
    11a ->  27a  :     0.000084 (c= -0.00917242)
    11a ->  28a  :     0.001200 (c= -0.03464350)
    11a ->  48a  :     0.000015 (c=  0.00383199)
    11a ->  52a  :     0.000024 (c=  0.00494408)
    12a ->  13a  :     0.971368 (c= -0.98558002)
    12a ->  14a  :     0.020596 (c= -0.14351210)
    12a ->  15a  :     0.000375 (c=  0.01935581)
    12a ->  16a  :     0.000029 (c= -0.00537986)
    12a ->  17a  :     0.000990 (c=  0.03146974)
    12a ->  18a  :     0.000010 (c= -0.00316280)
    12a ->  19a  :     0.000118 (c= -0.01085524)
    12a ->  20a  :     0.000166 (c= -0.01288306)
    12a ->  21a  :     0.000013 (c= -0.00354937)
    12a ->  23a  :     0.000247 (c=  0.01571232)
    12a ->  25a  :     0.000044 (c= -0.00664656)
    12a ->  26a  :     0.000084 (c= -0.00917041)
    12a ->  29a  :     0.001200 (c=  0.03464313)
    12a ->  30a  :     0.000074 (c= -0.00857938)
    12a ->  31a  :     0.000013 (c=  0.00356048)
    12a ->  47a  :     0.000015 (c= -0.00383148)
    12a ->  49a  :     0.000011 (c=  0.00336961)
    12a ->  53a  :     0.000024 (c=  0.00494390)

STATE  2:  E=   0.264676 au      7.202 eV    58089.6 cm**-1 <S**2> =   0.000000 Mult 1
     6a ->  15a  :     0.000060 (c=  0.00775554)
     6a ->  21a  :     0.000241 (c=  0.01551343)
     6a ->  23a  :     0.000060 (c= -0.00774129)
     6a ->  29a  :     0.000018 (c=  0.00420266)
     6a ->  32a  :     0.000018 (c= -0.00428764)
     7a ->  19a  :     0.000011 (c= -0.00333710)
     7a ->  21a  :     0.000038 (c= -0.00612865)
     7a ->  23a  :     0.000020 (c= -0.00451814)
     8a ->  13a  :     0.000018 (c=  0.00420816)
     8a ->  14a  :     0.000023 (c= -0.00476835)
     8a ->  15a  :     0.000032 (c= -0.00567863)
     8a ->  19a  :     0.000015 (c=  0.00389549)
     8a ->  20a  :     0.000011 (c=  0.00338081)
     8a ->  23a  :     0.000051 (c= -0.00715793)
     8a ->  26a  :     0.000021 (c=  0.00462737)
     8a ->  29a  :     0.000106 (c= -0.01029616)
     8a ->  30a  :     0.000021 (c= -0.00460772)
     8a ->  31a  :     0.000022 (c= -0.00474137)
     9a ->  16a  :     0.000032 (c= -0.00567444)
     9a ->  18a  :     0.000015 (c= -0.00389468)
     9a ->  24a  :     0.000051 (c=  0.00716170)
     9a ->  27a  :     0.000021 (c=  0.00462652)
     9a ->  28a  :     0.000106 (c=  0.01029627)
    10a ->  15a  :     0.000368 (c= -0.01917067)
    10a ->  19a  :     0.000085 (c=  0.00920976)
    10a ->  21a  :     0.000251 (c= -0.01583043)
    10a ->  23a  :     0.000272 (c=  0.01650592)
    10a ->  26a  :     0.000031 (c= -0.00558456)
    10a ->  29a  :     0.000059 (c= -0.00765351)
    10a ->  32a  :     0.000040 (c=  0.00636361)
    10a ->  44a  :     0.000021 (c= -0.00458066)
    10a ->  50a  :     0.000032 (c=  0.00562298)
    11a ->  13a  :     0.971366 (c= -0.98557902)
    11a ->  14a  :     0.020598 (c= -0.14351917)
    11a ->  15a  :     0.000374 (c= -0.01934917)
    11a ->  16a  :     0.000029 (c=  0.00537994)
    11a ->  17a  :     0.000990 (c=  0.03147167)
    11a ->  19a  :     0.000118 (c=  0.01085318)
    11a ->  20a  :     0.000166 (c= -0.01288225)
    11a ->  21a  :     0.000013 (c=  0.00354199)
    11a ->  23a  :     0.000247 (c= -0.01571441)
    11a ->  25a  :     0.000044 (c= -0.00663825)
    11a ->  26a  :     0.000084 (c=  0.00917373)
    11a ->  29a  :     0.001200 (c= -0.03464449)
    11a ->  30a  :     0.000074 (c= -0.00858018)
    11a ->  31a  :     0.000013 (c=  0.00356047)
    11a ->  47a  :     0.000015 (c=  0.00383188)
    11a ->  49a  :     0.000011 (c=  0.00336875)
    11a ->  53a  :     0.000024 (c= -0.00494438)
    12a ->  13a  :     0.000016 (c=  0.00400615)
    12a ->  15a  :     0.000029 (c=  0.00538127)
    12a ->  16a  :     0.000374 (c=  0.01934977)
    12a ->  18a  :     0.000118 (c=  0.01085242)
    12a ->  19a  :     0.000010 (c= -0.00316311)
    12a ->  22a  :     0.000013 (c= -0.00354451)
    12a ->  24a  :     0.000247 (c= -0.01571523)
    12a ->  27a  :     0.000084 (c= -0.00917305)
    12a ->  28a  :     0.001200 (c= -0.03464348)
    12a ->  48a  :     0.000015 (c=  0.00383194)
    12a ->  52a  :     0.000024 (c=  0.00494414)

STATE  3:  E=   0.308942 au      8.407 eV    67805.0 cm**-1 <S**2> =   0.000000 Mult 1
     6a ->  22a  :     0.000026 (c= -0.00511148)
     6a ->  27a  :     0.000011 (c= -0.00332906)
     7a ->  18a  :     0.000017 (c=  0.00407802)
     8a ->  18a  :     0.000010 (c= -0.00319518)
     9a ->  13a  :     0.000026 (c=  0.00513697)
     9a ->  14a  :     0.000507 (c=  0.02252149)
     9a ->  17a  :     0.000068 (c= -0.00823851)
     9a ->  19a  :     0.000010 (c= -0.00319517)
     9a ->  20a  :     0.000020 (c=  0.00451348)
     9a ->  35a  :     0.000012 (c= -0.00346472)
    10a ->  16a  :     0.000047 (c=  0.00683648)
    10a ->  18a  :     0.000032 (c=  0.00561896)
    10a ->  22a  :     0.000016 (c=  0.00400508)
    10a ->  24a  :     0.000051 (c=  0.00712421)
    11a ->  13a  :     0.000020 (c= -0.00452026)
    11a ->  14a  :     0.000932 (c=  0.03052969)
    11a ->  15a  :     0.000026 (c= -0.00510237)
    11a ->  16a  :     0.000419 (c= -0.02046834)
    11a ->  24a  :     0.000056 (c=  0.00749949)
    11a ->  28a  :     0.000105 (c=  0.01026437)
    12a ->  13a  :     0.021360 (c= -0.14615041)
    12a ->  14a  :     0.974861 (c=  0.98735051)
    12a ->  15a  :     0.000419 (c= -0.02047227)
    12a ->  16a  :     0.000026 (c=  0.00510696)
    12a ->  17a  :     0.000211 (c=  0.01452818)
    12a ->  20a  :     0.000104 (c=  0.01017465)
    12a ->  23a  :     0.000056 (c= -0.00750074)
    12a ->  25a  :     0.000021 (c= -0.00453756)
    12a ->  29a  :     0.000105 (c= -0.01026342)
    12a ->  30a  :     0.000243 (c=  0.01557341)

STATE  4:  E=   0.308944 au      8.407 eV    67805.3 cm**-1 <S**2> =   0.000000 Mult 1
     6a ->  21a  :     0.000026 (c=  0.00511094)
     6a ->  26a  :     0.000011 (c=  0.00332907)
     7a ->  19a  :     0.000017 (c=  0.00407838)
     8a ->  13a  :     0.000026 (c=  0.00513493)
     8a ->  14a  :     0.000507 (c=  0.02251896)
     8a ->  17a  :     0.000068 (c= -0.00823704)
     8a ->  19a  :     0.000010 (c=  0.00319637)
     8a ->  20a  :     0.000020 (c=  0.00451281)
     8a ->  35a  :     0.000012 (c= -0.00346446)
     9a ->  18a  :     0.000010 (c= -0.00319723)
    10a ->  15a  :     0.000047 (c= -0.00683526)
    10a ->  19a  :     0.000032 (c=  0.00561803)
    10a ->  21a  :     0.000016 (c= -0.00400451)
    10a ->  23a  :     0.000051 (c=  0.00712330)
    11a ->  13a  :     0.021362 (c=  0.14615689)
    11a ->  14a  :     0.974860 (c= -0.98734999)
    11a ->  15a  :     0.000418 (c= -0.02045681)
    11a ->  16a  :     0.000026 (c=  0.00510173)
    11a ->  17a  :     0.000211 (c= -0.01452732)
    11a ->  20a  :     0.000104 (c= -0.01017399)
    11a ->  23a  :     0.000056 (c= -0.00749828)
    11a ->  25a  :     0.000021 (c=  0.00453964)
    11a ->  29a  :     0.000105 (c= -0.01026311)
    11a ->  30a  :     0.000243 (c= -0.01557279)
    12a ->  13a  :     0.000020 (c= -0.00451851)
    12a ->  14a  :     0.000932 (c=  0.03052994)
    12a ->  15a  :     0.000026 (c=  0.00510391)
    12a ->  16a  :     0.000419 (c=  0.02047271)
    12a ->  24a  :     0.000056 (c= -0.00749763)
    12a ->  28a  :     0.000105 (c= -0.01026262)

STATE  5:  E=   0.354411 au      9.644 eV    77784.2 cm**-1 <S**2> =   0.000000 Mult 1
     8a ->  16a  :     0.000390 (c=  0.01973834)
     8a ->  27a  :     0.000028 (c= -0.00531225)
     9a ->  15a  :     0.000391 (c=  0.01977267)
     9a ->  26a  :     0.000028 (c= -0.00529904)
    11a ->  15a  :     0.001613 (c= -0.04015741)
    11a ->  16a  :     0.494583 (c= -0.70326588)
    11a ->  18a  :     0.000456 (c= -0.02135655)
    11a ->  22a  :     0.000136 (c= -0.01165556)
    11a ->  24a  :     0.000134 (c= -0.01158538)
    11a ->  27a  :     0.000149 (c=  0.01219053)
    11a ->  28a  :     0.000068 (c=  0.00824614)
    12a ->  15a  :     0.499374 (c=  0.70666399)
    12a ->  16a  :     0.001600 (c= -0.04000569)
    12a ->  19a  :     0.000456 (c= -0.02135583)
    12a ->  21a  :     0.000138 (c=  0.01172668)
    12a ->  23a  :     0.000136 (c= -0.01165920)
    12a ->  26a  :     0.000149 (c= -0.01221120)
    12a ->  29a  :     0.000068 (c=  0.00822152)

STATE  6:  E=   0.356319 au      9.696 eV    78202.9 cm**-1 <S**2> =   0.000000 Mult 1
     6a ->  22a  :     0.000023 (c=  0.00476556)
     7a ->  16a  :     0.000014 (c= -0.00378153)
     7a ->  18a  :     0.000030 (c=  0.00545789)
     7a ->  24a  :     0.000051 (c=  0.00717403)
     7a ->  28a  :     0.000012 (c= -0.00339854)
     8a ->  16a  :     0.000037 (c=  0.00611169)
     8a ->  18a  :     0.000162 (c= -0.01273096)
     8a ->  19a  :     0.000038 (c=  0.00615732)
     8a ->  22a  :     0.000018 (c= -0.00429408)
     8a ->  28a  :     0.000014 (c= -0.00373512)
     9a ->  13a  :     0.000144 (c= -0.01198576)
     9a ->  14a  :     0.000110 (c= -0.01048423)
     9a ->  15a  :     0.000036 (c= -0.00602685)
     9a ->  18a  :     0.000038 (c= -0.00616358)
     9a ->  19a  :     0.000162 (c= -0.01273034)
     9a ->  20a  :     0.000021 (c= -0.00454513)
     9a ->  21a  :     0.000018 (c=  0.00428061)
     9a ->  25a  :     0.000079 (c=  0.00889234)
     9a ->  29a  :     0.000014 (c= -0.00374880)
    10a ->  16a  :     0.000048 (c= -0.00692783)
    10a ->  22a  :     0.000018 (c= -0.00429294)
    10a ->  27a  :     0.000018 (c= -0.00422828)
    10a ->  33a  :     0.000042 (c=  0.00645703)
    11a ->  14a  :     0.000018 (c=  0.00425004)
    11a ->  15a  :     0.077983 (c= -0.27925355)
    11a ->  16a  :     0.422032 (c= -0.64963983)
    11a ->  21a  :     0.000011 (c= -0.00333569)
    11a ->  22a  :     0.000231 (c= -0.01518492)
    11a ->  23a  :     0.000027 (c=  0.00521921)
    11a ->  24a  :     0.000231 (c= -0.01518274)
    11a ->  27a  :     0.000015 (c=  0.00383712)
    11a ->  28a  :     0.000029 (c= -0.00538416)
    11a ->  33a  :     0.000013 (c=  0.00356464)
    11a ->  39a  :     0.000010 (c=  0.00317624)
    12a ->  13a  :     0.000512 (c= -0.02263661)
    12a ->  14a  :     0.001040 (c= -0.03224612)
    12a ->  15a  :     0.418107 (c= -0.64661167)
    12a ->  16a  :     0.077586 (c=  0.27854262)
    12a ->  17a  :     0.000175 (c= -0.01323066)
    12a ->  21a  :     0.000229 (c= -0.01513436)
    12a ->  22a  :     0.000011 (c=  0.00334121)
    12a ->  23a  :     0.000229 (c=  0.01513191)
    12a ->  24a  :     0.000027 (c=  0.00523139)
    12a ->  25a  :     0.000040 (c=  0.00633745)
    12a ->  26a  :     0.000014 (c=  0.00378244)
    12a ->  29a  :     0.000029 (c=  0.00541976)
    12a ->  31a  :     0.000046 (c=  0.00678846)
    12a ->  32a  :     0.000013 (c=  0.00355216)
    12a ->  40a  :     0.000010 (c= -0.00316952)

STATE  7:  E=   0.356319 au      9.696 eV    78203.1 cm**-1 <S**2> =   0.000000 Mult 1
     6a ->  21a  :     0.000023 (c= -0.00476584)
     7a ->  15a  :     0.000014 (c=  0.00378238)
     7a ->  19a  :     0.000030 (c=  0.00545823)
     7a ->  23a  :     0.000051 (c=  0.00717328)
     7a ->  29a  :     0.000012 (c= -0.00339884)
     8a ->  13a  :     0.000144 (c= -0.01199379)
     8a ->  14a  :     0.000110 (c= -0.01048811)
     8a ->  15a  :     0.000037 (c=  0.00604849)
     8a ->  18a  :     0.000038 (c=  0.00616106)
     8a ->  19a  :     0.000162 (c=  0.01272525)
     8a ->  20a  :     0.000021 (c= -0.00454536)
     8a ->  21a  :     0.000018 (c= -0.00428693)
     8a ->  25a  :     0.000079 (c=  0.00889395)
     8a ->  29a  :     0.000014 (c=  0.00374083)
     9a ->  16a  :     0.000037 (c=  0.00608837)
     9a ->  18a  :     0.000162 (c= -0.01273735)
     9a ->  19a  :     0.000038 (c=  0.00616134)
     9a ->  22a  :     0.000018 (c= -0.00428571)
     9a ->  28a  :     0.000014 (c= -0.00374320)
    10a ->  15a  :     0.000048 (c=  0.00692405)
    10a ->  21a  :     0.000018 (c=  0.00429298)
    10a ->  26a  :     0.000018 (c=  0.00422704)
    10a ->  32a  :     0.000042 (c= -0.00645723)
    11a ->  13a  :     0.000512 (c=  0.02263287)
    11a ->  14a  :     0.001039 (c=  0.03223764)
    11a ->  15a  :     0.420684 (c= -0.64860143)
    11a ->  16a  :     0.078214 (c=  0.27966718)
    11a ->  17a  :     0.000175 (c=  0.01323714)
    11a ->  21a  :     0.000230 (c= -0.01516109)
    11a ->  22a  :     0.000011 (c=  0.00335045)
    11a ->  23a  :     0.000229 (c=  0.01514716)
    11a ->  24a  :     0.000027 (c=  0.00523797)
    11a ->  25a  :     0.000040 (c= -0.00633619)
    11a ->  26a  :     0.000015 (c=  0.00382190)
    11a ->  29a  :     0.000029 (c=  0.00539840)
    11a ->  31a  :     0.000046 (c= -0.00678802)
    11a ->  32a  :     0.000013 (c=  0.00355584)
    11a ->  40a  :     0.000010 (c= -0.00317572)
    12a ->  14a  :     0.000018 (c=  0.00425114)
    12a ->  15a  :     0.077355 (c=  0.27812728)
    12a ->  16a  :     0.419455 (c=  0.64765353)
    12a ->  21a  :     0.000011 (c=  0.00332605)
    12a ->  22a  :     0.000230 (c=  0.01515604)
    12a ->  23a  :     0.000027 (c= -0.00521298)
    12a ->  24a  :     0.000230 (c=  0.01516779)
    12a ->  27a  :     0.000014 (c= -0.00380352)
    12a ->  28a  :     0.000029 (c=  0.00540337)
    12a ->  33a  :     0.000013 (c= -0.00356009)
    12a ->  39a  :     0.000010 (c= -0.00317043)

STATE  8:  E=   0.360042 au      9.797 eV    79020.0 cm**-1 <S**2> =   0.000000 Mult 1
     6a ->  13a  :     0.000292 (c=  0.01709720)
     6a ->  20a  :     0.000021 (c=  0.00463592)
     6a ->  25a  :     0.000040 (c=  0.00631868)
     7a ->  13a  :     0.000038 (c=  0.00619590)
     7a ->  14a  :     0.000108 (c= -0.01041122)
     7a ->  17a  :     0.000042 (c=  0.00651153)
     7a ->  25a  :     0.000166 (c=  0.01289343)
     7a ->  30a  :     0.000031 (c= -0.00553445)
     7a ->  46a  :     0.000021 (c=  0.00455658)
     8a ->  15a  :     0.000937 (c= -0.03061426)
     8a ->  19a  :     0.000074 (c= -0.00858980)
     8a ->  23a  :     0.000125 (c=  0.01116789)
     8a ->  26a  :     0.000296 (c=  0.01719265)
     8a ->  32a  :     0.000011 (c= -0.00334182)
     8a ->  37a  :     0.000023 (c=  0.00476398)
     8a ->  42a  :     0.000020 (c=  0.00447321)
     9a ->  16a  :     0.000936 (c=  0.03060192)
     9a ->  18a  :     0.000073 (c= -0.00856683)
     9a ->  24a  :     0.000125 (c=  0.01117181)
     9a ->  27a  :     0.000296 (c= -0.01719718)
     9a ->  33a  :     0.000011 (c=  0.00333994)
     9a ->  36a  :     0.000023 (c=  0.00476142)
     9a ->  43a  :     0.000020 (c=  0.00447354)
    10a ->  13a  :     0.014864 (c=  0.12191648)
    10a ->  14a  :     0.000957 (c= -0.03093296)
    10a ->  17a  :     0.000040 (c=  0.00632641)
    10a ->  20a  :     0.000011 (c= -0.00338390)
    10a ->  25a  :     0.000089 (c=  0.00944869)
    10a ->  30a  :     0.000111 (c= -0.01055562)
    10a ->  31a  :     0.000064 (c=  0.00797803)
    10a ->  38a  :     0.000040 (c= -0.00633483)
    11a ->  15a  :     0.487217 (c= -0.69800918)
    11a ->  16a  :     0.001581 (c=  0.03976235)
    11a ->  23a  :     0.000211 (c= -0.01453066)
    11a ->  26a  :     0.000120 (c=  0.01097373)
    11a ->  40a  :     0.000013 (c= -0.00358779)
    12a ->  15a  :     0.001574 (c= -0.03967565)
    12a ->  16a  :     0.488849 (c= -0.69917730)
    12a ->  24a  :     0.000210 (c=  0.01450380)
    12a ->  27a  :     0.000121 (c=  0.01097900)
    12a ->  39a  :     0.000013 (c=  0.00359369)

STATE  9:  E=   0.405432 au     11.032 eV    88982.0 cm**-1 <S**2> =   0.000000 Mult 1
     6a ->  13a  :     0.000025 (c= -0.00497327)
     6a ->  14a  :     0.000228 (c= -0.01509696)
     6a ->  20a  :     0.000046 (c=  0.00676286)
     6a ->  30a  :     0.000042 (c= -0.00645825)
     6a ->  31a  :     0.000013 (c=  0.00359140)
     6a ->  35a  :     0.000018 (c= -0.00424185)
     7a ->  13a  :     0.001382 (c= -0.03717629)
     7a ->  14a  :     0.000058 (c=  0.00761648)
     7a ->  17a  :     0.000090 (c=  0.00948593)
     7a ->  20a  :     0.000256 (c= -0.01599657)
     7a ->  38a  :     0.000023 (c= -0.00479429)
     8a ->  15a  :     0.000766 (c=  0.02767996)
     8a ->  19a  :     0.000014 (c=  0.00374774)
     8a ->  21a  :     0.000058 (c= -0.00759077)
     8a ->  23a  :     0.000012 (c= -0.00349135)
     8a ->  32a  :     0.000013 (c= -0.00364253)
     9a ->  16a  :     0.000767 (c= -0.02768969)
     9a ->  18a  :     0.000014 (c=  0.00374088)
     9a ->  22a  :     0.000058 (c=  0.00759183)
     9a ->  24a  :     0.000012 (c= -0.00349046)
     9a ->  33a  :     0.000013 (c=  0.00364558)
    10a ->  13a  :     0.764107 (c= -0.87413220)
    10a ->  14a  :     0.172436 (c=  0.41525473)
    10a ->  17a  :     0.000453 (c= -0.02129376)
    10a ->  20a  :     0.001012 (c=  0.03181152)
    10a ->  30a  :     0.000024 (c=  0.00494889)
    10a ->  31a  :     0.000136 (c=  0.01167583)
    10a ->  35a  :     0.000032 (c=  0.00564859)
    11a ->  15a  :     0.007241 (c= -0.08509442)
    11a ->  16a  :     0.000023 (c=  0.00483884)
    11a ->  18a  :     0.000071 (c= -0.00843975)
    11a ->  19a  :     0.014851 (c= -0.12186527)
    11a ->  21a  :     0.000246 (c= -0.01568613)
    11a ->  23a  :     0.005103 (c= -0.07143369)
    11a ->  26a  :     0.000751 (c=  0.02741201)
    11a ->  29a  :     0.000420 (c=  0.02049049)
    11a ->  32a  :     0.000151 (c= -0.01227313)
    12a ->  15a  :     0.000023 (c= -0.00484223)
    12a ->  16a  :     0.007244 (c= -0.08511309)
    12a ->  18a  :     0.014851 (c=  0.12186313)
    12a ->  19a  :     0.000071 (c= -0.00844188)
    12a ->  22a  :     0.000246 (c= -0.01568796)
    12a ->  24a  :     0.005104 (c=  0.07143917)
    12a ->  27a  :     0.000752 (c=  0.02741377)
    12a ->  28a  :     0.000420 (c= -0.02048554)
    12a ->  33a  :     0.000151 (c= -0.01227144)

STATE 10:  E=   0.414631 au     11.283 eV    91000.9 cm**-1 <S**2> =   0.000000 Mult 1
     6a ->  16a  :     0.000079 (c= -0.00890883)
     6a ->  24a  :     0.000063 (c= -0.00796809)
     6a ->  27a  :     0.000016 (c=  0.00403312)
     7a ->  16a  :     0.000255 (c= -0.01597723)
     7a ->  24a  :     0.000037 (c= -0.00610281)
     7a ->  27a  :     0.000080 (c=  0.00895297)
     8a ->  13a  :     0.000013 (c= -0.00365166)
     8a ->  16a  :     0.000073 (c= -0.00854709)
     8a ->  18a  :     0.000114 (c= -0.01068409)
     8a ->  19a  :     0.000015 (c=  0.00387481)
     8a ->  27a  :     0.000038 (c=  0.00614766)
     8a ->  28a  :     0.000015 (c= -0.00389493)
     8a ->  33a  :     0.000017 (c=  0.00410609)
     8a ->  36a  :     0.000051 (c=  0.00714425)
     8a ->  39a  :     0.000011 (c=  0.00336619)
     8a ->  70a  :     0.000014 (c= -0.00376968)
     9a ->  13a  :     0.961037 (c=  0.98032515)
     9a ->  14a  :     0.032861 (c=  0.18127680)
     9a ->  15a  :     0.000073 (c=  0.00853832)
     9a ->  17a  :     0.000978 (c= -0.03128011)
     9a ->  18a  :     0.000015 (c= -0.00387326)
     9a ->  19a  :     0.000114 (c= -0.01068357)
     9a ->  20a  :     0.000646 (c=  0.02541216)
     9a ->  26a  :     0.000038 (c= -0.00614597)
     9a ->  29a  :     0.000015 (c= -0.00389574)
     9a ->  30a  :     0.000016 (c=  0.00405493)
     9a ->  31a  :     0.000117 (c= -0.01080492)
     9a ->  32a  :     0.000017 (c= -0.00410572)
     9a ->  37a  :     0.000051 (c=  0.00714479)
     9a ->  38a  :     0.000085 (c=  0.00923826)
     9a ->  40a  :     0.000011 (c=  0.00336709)
     9a ->  65a  :     0.000011 (c=  0.00333856)
     9a ->  69a  :     0.000014 (c=  0.00376958)
    10a ->  16a  :     0.000898 (c=  0.02996943)
    10a ->  24a  :     0.000066 (c=  0.00812664)
    10a ->  39a  :     0.000018 (c= -0.00425094)
    10a ->  45a  :     0.000017 (c=  0.00414004)
    11a ->  16a  :     0.000076 (c= -0.00873395)
    11a ->  18a  :     0.000205 (c=  0.01432984)
    11a ->  19a  :     0.000022 (c= -0.00467132)
    11a ->  24a  :     0.000117 (c= -0.01080624)
    11a ->  27a  :     0.000028 (c= -0.00528925)
    11a ->  28a  :     0.000260 (c= -0.01610951)
    12a ->  14a  :     0.000103 (c= -0.01012469)
    12a ->  15a  :     0.000076 (c= -0.00872719)
    12a ->  17a  :     0.000079 (c=  0.00891551)
    12a ->  18a  :     0.000022 (c= -0.00469706)
    12a ->  19a  :     0.000205 (c= -0.01432943)
    12a ->  20a  :     0.000030 (c=  0.00544559)
    12a ->  23a  :     0.000117 (c=  0.01080593)
    12a ->  25a  :     0.000051 (c= -0.00713344)
    12a ->  26a  :     0.000028 (c= -0.00528700)
    12a ->  29a  :     0.000260 (c=  0.01610984)

STATE 11:  E=   0.414642 au     11.283 eV    91003.4 cm**-1 <S**2> =   0.000000 Mult 1
     6a ->  15a  :     0.000079 (c=  0.00890879)
     6a ->  23a  :     0.000063 (c= -0.00796846)
     6a ->  26a  :     0.000016 (c= -0.00403306)
     7a ->  15a  :     0.000255 (c=  0.01597695)
     7a ->  23a  :     0.000037 (c= -0.00610436)
     7a ->  26a  :     0.000080 (c= -0.00895255)
     8a ->  13a  :     0.961036 (c=  0.98032426)
     8a ->  14a  :     0.032862 (c=  0.18127839)
     8a ->  15a  :     0.000073 (c= -0.00856867)
     8a ->  17a  :     0.000978 (c= -0.03127811)
     8a ->  18a  :     0.000015 (c=  0.00387423)
     8a ->  19a  :     0.000114 (c=  0.01068600)
     8a ->  20a  :     0.000646 (c=  0.02541293)
     8a ->  26a  :     0.000038 (c=  0.00614877)
     8a ->  29a  :     0.000015 (c=  0.00389311)
     8a ->  30a  :     0.000016 (c=  0.00405571)
     8a ->  31a  :     0.000117 (c= -0.01080499)
     8a ->  32a  :     0.000017 (c=  0.00410549)
     8a ->  37a  :     0.000051 (c= -0.00714440)
     8a ->  38a  :     0.000085 (c=  0.00923933)
     8a ->  40a  :     0.000011 (c= -0.00336728)
     8a ->  65a  :     0.000011 (c=  0.00333862)
     8a ->  69a  :     0.000014 (c= -0.00377011)
     9a ->  13a  :     0.000013 (c=  0.00365195)
     9a ->  16a  :     0.000073 (c= -0.00855080)
     9a ->  18a  :     0.000114 (c= -0.01068109)
     9a ->  19a  :     0.000015 (c=  0.00387320)
     9a ->  27a  :     0.000038 (c=  0.00615000)
     9a ->  28a  :     0.000015 (c= -0.00389597)
     9a ->  33a  :     0.000017 (c=  0.00410554)
     9a ->  36a  :     0.000051 (c=  0.00714319)
     9a ->  39a  :     0.000011 (c=  0.00336631)
     9a ->  70a  :     0.000014 (c= -0.00376984)
    10a ->  15a  :     0.000899 (c= -0.02997846)
    10a ->  23a  :     0.000066 (c=  0.00812752)
    10a ->  40a  :     0.000018 (c= -0.00425026)
    10a ->  44a  :     0.000017 (c= -0.00414103)
    11a ->  14a  :     0.000102 (c=  0.01012266)
    11a ->  15a  :     0.000076 (c= -0.00872162)
    11a ->  17a  :     0.000079 (c= -0.00891491)
    11a ->  18a  :     0.000022 (c= -0.00467976)
    11a ->  19a  :     0.000204 (c= -0.01429888)
    11a ->  20a  :     0.000030 (c= -0.00544618)
    11a ->  23a  :     0.000117 (c=  0.01082138)
    11a ->  25a  :     0.000051 (c=  0.00712880)
    11a ->  26a  :     0.000028 (c= -0.00529851)
    11a ->  29a  :     0.000259 (c=  0.01610523)
    12a ->  16a  :     0.000077 (c=  0.00875219)
    12a ->  18a  :     0.000206 (c= -0.01435664)
    12a ->  19a  :     0.000022 (c=  0.00468433)
    12a ->  24a  :     0.000116 (c=  0.01078990)
    12a ->  27a  :     0.000028 (c=  0.00528394)
    12a ->  28a  :     0.000260 (c=  0.01611463)

STATE 12:  E=   0.441197 au     12.006 eV    96831.5 cm**-1 <S**2> =   0.000000 Mult 1
     6a ->  13a  :     0.000402 (c=  0.02003759)
     6a ->  14a  :     0.000030 (c= -0.00544017)
     6a ->  20a  :     0.000015 (c= -0.00383651)
     6a ->  25a  :     0.000116 (c=  0.01077430)
     6a ->  30a  :     0.000041 (c=  0.00637168)
     6a ->  31a  :     0.000047 (c= -0.00686418)
     7a ->  13a  :     0.000126 (c=  0.01124181)
     7a ->  14a  :     0.003274 (c= -0.05721566)
     7a ->  17a  :     0.000012 (c= -0.00341928)
     7a ->  20a  :     0.000024 (c=  0.00488416)
     7a ->  25a  :     0.000177 (c=  0.01329839)
     7a ->  30a  :     0.000165 (c= -0.01283198)
     7a ->  35a  :     0.000011 (c= -0.00329559)
     7a ->  38a  :     0.000011 (c=  0.00326221)
     7a ->  61a  :     0.000013 (c=  0.00362754)
     8a ->  15a  :     0.024282 (c= -0.15582758)
[...]
  0-1A  -> 40-1A   17.392213  140277.7    71.3   0.000075383   0.00007   0.00530  -0.00653   0.00124
  0-1A  -> 41-1A   17.432270  140600.8    71.1   0.000000000   0.00000   0.00001  -0.00000  -0.00001
  0-1A  -> 42-1A   17.868740  144121.1    69.4   0.057682968   0.05682  -0.13760  -0.13771  -0.13755
  0-1A  -> 43-1A   18.032724  145443.7    68.8   0.145878226   0.14501  -0.21993  -0.21960  -0.22004
  0-1A  -> 44-1A   18.141352  146319.9    68.3   0.057459408   0.05746   0.14831   0.03669  -0.18472
  0-1A  -> 45-1A   18.141428  146320.5    68.3   0.057463599   0.05747   0.12761  -0.19250   0.06422
  0-1A  -> 46-1A   18.754117  151262.2    66.1   0.049875415   0.05156  -0.13113  -0.13102  -0.13115
  0-1A  -> 47-1A   19.060390  153732.4    65.0   0.033433122   0.03513  -0.12308  -0.01732   0.14028
  0-1A  -> 48-1A   19.060574  153733.9    65.0   0.033479625   0.03518  -0.09093   0.15229  -0.06097
  0-1A  -> 49-1A   19.104612  154089.1    64.9   0.007278491   0.00767  -0.05062  -0.05035  -0.05067
  0-1A  -> 50-1A   19.273439  155450.8    64.3   0.000000036   0.00000   0.00015  -0.00003  -0.00012

------------------------------------------------------------------------------------------
                     CD SPECTRUM VIA TRANSITION ELECTRIC DIPOLE MOMENTS    
------------------------------------------------------------------------------------------
     Transition      Energy     Energy  Wavelength    R        MX        MY        MZ   
                      (eV)      (cm-1)    (nm)   (1e40*cgs)   (au)      (au)      (au)  
------------------------------------------------------------------------------------------
  0-1A  ->  1-1A    7.202146   58089.2   172.1    0.00056   0.07250  -0.12956   0.05704
  0-1A  ->  2-1A    7.202191   58089.6   172.1    0.00009  -0.10775  -0.00893   0.11667
  0-1A  ->  3-1A    8.406752   67805.0   147.5    0.00163   0.16855  -0.31429   0.14572
  0-1A  ->  4-1A    8.406784   67805.3   147.5    0.00057   0.26561   0.01319  -0.27879
  0-1A  ->  5-1A    9.644012   77784.2   128.6   -0.00034  -0.10156  -0.10080  -0.10182
  0-1A  ->  6-1A    9.695928   78202.9   127.9   -0.00130   0.15969  -0.23571   0.07536
  0-1A  ->  7-1A    9.695943   78203.1   127.9   -0.00133   0.17964   0.04879  -0.22811
  0-1A  ->  8-1A    9.797233   79020.0   126.6    0.00062  -0.00024   0.00006   0.00017
  0-1A  ->  9-1A   11.032356   88982.0   112.4   -0.00044   0.00001  -0.00001   0.00000
  0-1A  -> 10-1A   11.282670   91000.9   109.9    0.00043   0.09150  -0.15566   0.06417
  0-1A  -> 11-1A   11.282982   91003.4   109.9   -0.00053   0.12690   0.01579  -0.14268
  0-1A  -> 12-1A   12.005569   96831.5   103.3   -0.00089  -0.00011   0.00004   0.00007
  0-1A  -> 13-1A   12.418567  100162.5    99.8    0.00130  -0.26199   0.44450  -0.18248
  0-1A  -> 14-1A   12.418849  100164.8    99.8    0.00295  -0.36199  -0.04592   0.40789
  0-1A  -> 15-1A   12.671627  102203.6    97.8   -0.00091   0.10123   0.01783  -0.11904
  0-1A  -> 16-1A   12.671788  102204.9    97.8    0.00077  -0.07886   0.12695  -0.04803
  0-1A  -> 17-1A   12.931235  104297.5    95.9   -0.00334  -0.12402   0.26331  -0.13933
  0-1A  -> 18-1A   12.931261  104297.7    95.9    0.00309   0.23242  -0.00887  -0.22357
  0-1A  -> 19-1A   13.484470  108759.6    91.9   -0.00013   0.07663   0.07644   0.07671
  0-1A  -> 20-1A   13.501965  108900.7    91.8    0.00037   0.19748   0.19754   0.19743
  0-1A  -> 21-1A   13.562233  109386.8    91.4   -0.00168   0.06189  -0.09271   0.03187
  0-1A  -> 22-1A   13.562251  109386.9    91.4    0.00059   0.07185   0.01719  -0.08953
  0-1A  -> 23-1A   13.886247  112000.1    89.3   -0.00559  -0.08094   0.41020  -0.32902
  0-1A  -> 24-1A   13.886259  112000.2    89.3    0.00232  -0.42677   0.14326   0.28353
  0-1A  -> 25-1A   14.027550  113139.8    88.4    0.00264  -0.00020   0.00003   0.00017
  0-1A  -> 26-1A   14.572633  117536.2    85.1    0.00015   0.00004  -0.00002  -0.00002
  0-1A  -> 27-1A   15.038484  121293.6    82.4    0.00108  -0.01834   0.03374  -0.01541
  0-1A  -> 28-1A   15.038510  121293.8    82.4   -0.00112   0.02836   0.00168  -0.03004
  0-1A  -> 29-1A   16.282142  131324.3    76.1   -0.00008   0.02077   0.02072   0.02078
  0-1A  -> 30-1A   16.327335  131688.8    75.9   -0.00036  -0.05005  -0.01638   0.06641
  0-1A  -> 31-1A   16.327342  131688.9    75.9    0.00031   0.04778  -0.06722   0.01942
  0-1A  -> 32-1A   16.411224  132365.5    75.5    0.00002  -0.00001   0.00002  -0.00001
  0-1A  -> 33-1A   16.556971  133541.0    74.9   -0.00019   0.09485  -0.15073   0.05594
  0-1A  -> 34-1A   16.557123  133542.2    74.9    0.00016  -0.11933  -0.02246   0.14181
  0-1A  -> 35-1A   16.781293  135350.3    73.9   -0.00034  -0.07896   0.13560  -0.05667
  0-1A  -> 36-1A   16.781560  135352.4    73.9    0.00011   0.11100   0.01285  -0.12388
  0-1A  -> 37-1A   17.099052  137913.2    72.5   -0.00039   0.10709   0.10700   0.10710
  0-1A  -> 38-1A   17.247472  139110.3    71.9    0.00032   0.00000   0.00000  -0.00001
  0-1A  -> 39-1A   17.392199  140277.6    71.3   -0.00287   0.28592  -0.35239   0.06647
  0-1A  -> 40-1A   17.392213  140277.7    71.3    0.00178  -0.24183  -0.12671   0.36853
  0-1A  -> 41-1A   17.432270  140600.8    71.1    0.00006   0.20814   0.20816   0.20814
  0-1A  -> 42-1A   17.868740  144121.1    69.4    0.00036  -0.00009   0.00003   0.00005
  0-1A  -> 43-1A   18.032724  145443.7    68.8   -0.00069   0.00034  -0.00008  -0.00026
  0-1A  -> 44-1A   18.141352  146319.9    68.3    0.00123   0.17491  -0.26314   0.08817
  0-1A  -> 45-1A   18.141428  146320.5    68.3   -0.00089  -0.20285  -0.05009   0.25292
  0-1A  -> 46-1A   18.754117  151262.2    66.1    0.00035   0.00010  -0.00002  -0.00009
  0-1A  -> 47-1A   19.060390  153732.4    65.0    0.00064  -0.06479   0.10842  -0.04345
  0-1A  -> 48-1A   19.060574  153733.9    65.0   -0.00080   0.08788   0.01236  -0.10018
  0-1A  -> 49-1A   19.104612  154089.1    64.9   -0.00010   0.00014  -0.00002  -0.00012
  0-1A  -> 50-1A   19.273439  155450.8    64.3    0.00047   0.06852   0.06832   0.06858

------------------------------------------------------------------------------------------
                     CD SPECTRUM VIA TRANSITION VELOCITY DIPOLE MOMENTS    
------------------------------------------------------------------------------------------
     Transition      Energy     Energy  Wavelength    R        MX        MY        MZ   
                      (eV)      (cm-1)    (nm)   (1e40*cgs)   (au)      (au)      (au)  
------------------------------------------------------------------------------------------
  0-1A  ->  1-1A    7.202146   58089.2   172.1   -0.00019   0.07250  -0.12956   0.05704
  0-1A  ->  2-1A    7.202191   58089.6   172.1   -0.00001  -0.10775  -0.00893   0.11667
  0-1A  ->  3-1A    8.406752   67805.0   147.5   -0.00026   0.16855  -0.31429   0.14572
  0-1A  ->  4-1A    8.406784   67805.3   147.5   -0.00136   0.26561   0.01319  -0.27879
  0-1A  ->  5-1A    9.644012   77784.2   128.6    0.00105  -0.10156  -0.10080  -0.10182
  0-1A  ->  6-1A    9.695928   78202.9   127.9   -0.00066   0.15969  -0.23571   0.07536
  0-1A  ->  7-1A    9.695943   78203.1   127.9    0.00187   0.17964   0.04879  -0.22811
  0-1A  ->  8-1A    9.797233   79020.0   126.6    0.00054  -0.00024   0.00006   0.00017
  0-1A  ->  9-1A   11.032356   88982.0   112.4   -0.00033   0.00001  -0.00001   0.00000
  0-1A  -> 10-1A   11.282670   91000.9   109.9    0.00158   0.09150  -0.15566   0.06417
  0-1A  -> 11-1A   11.282982   91003.4   109.9   -0.00083   0.12690   0.01579  -0.14268
  0-1A  -> 12-1A   12.005569   96831.5   103.3   -0.00067  -0.00011   0.00004   0.00007
  0-1A  -> 13-1A   12.418567  100162.5    99.8   -0.00042  -0.26199   0.44450  -0.18248
  0-1A  -> 14-1A   12.418849  100164.8    99.8   -0.00014  -0.36199  -0.04592   0.40789
  0-1A  -> 15-1A   12.671627  102203.6    97.8   -0.00135   0.10123   0.01783  -0.11904
  0-1A  -> 16-1A   12.671788  102204.9    97.8    0.00062  -0.07886   0.12695  -0.04803
  0-1A  -> 17-1A   12.931235  104297.5    95.9   -0.00197  -0.12402   0.26331  -0.13933
  0-1A  -> 18-1A   12.931261  104297.7    95.9    0.00288   0.23242  -0.00887  -0.22357
  0-1A  -> 19-1A   13.484470  108759.6    91.9   -0.00011   0.07663   0.07644   0.07671
  0-1A  -> 20-1A   13.501965  108900.7    91.8   -0.00005   0.19748   0.19754   0.19743
  0-1A  -> 21-1A   13.562233  109386.8    91.4   -0.00158   0.06189  -0.09271   0.03187
  0-1A  -> 22-1A   13.562251  109386.9    91.4    0.00006   0.07185   0.01719  -0.08953
  0-1A  -> 23-1A   13.886247  112000.1    89.3   -0.00162  -0.08094   0.41020  -0.32902
  0-1A  -> 24-1A   13.886259  112000.2    89.3    0.00280  -0.42677   0.14326   0.28353
  0-1A  -> 25-1A   14.027550  113139.8    88.4    0.00202  -0.00020   0.00003   0.00017
  0-1A  -> 26-1A   14.572633  117536.2    85.1    0.00008   0.00004  -0.00002  -0.00002
  0-1A  -> 27-1A   15.038484  121293.6    82.4    0.00078  -0.01834   0.03374  -0.01541
  0-1A  -> 28-1A   15.038510  121293.8    82.4   -0.00079   0.02836   0.00168  -0.03004
  0-1A  -> 29-1A   16.282142  131324.3    76.1    0.00001   0.02077   0.02072   0.02078
  0-1A  -> 30-1A   16.327335  131688.8    75.9   -0.00031  -0.05005  -0.01638   0.06641
  0-1A  -> 31-1A   16.327342  131688.9    75.9    0.00030   0.04778  -0.06722   0.01942
  0-1A  -> 32-1A   16.411224  132365.5    75.5    0.00002  -0.00001   0.00002  -0.00001
  0-1A  -> 33-1A   16.556971  133541.0    74.9   -0.00017   0.09485  -0.15073   0.05594
  0-1A  -> 34-1A   16.557123  133542.2    74.9    0.00016  -0.11933  -0.02246   0.14181
  0-1A  -> 35-1A   16.781293  135350.3    73.9   -0.00009  -0.07896   0.13560  -0.05667
  0-1A  -> 36-1A   16.781560  135352.4    73.9    0.00014   0.11100   0.01285  -0.12388
  0-1A  -> 37-1A   17.099052  137913.2    72.5   -0.00055   0.10709   0.10700   0.10710
  0-1A  -> 38-1A   17.247472  139110.3    71.9    0.00025   0.00000   0.00000  -0.00001
  0-1A  -> 39-1A   17.392199  140277.6    71.3   -0.00028   0.28592  -0.35239   0.06647
  0-1A  -> 40-1A   17.392213  140277.7    71.3    0.00007  -0.24183  -0.12671   0.36853
  0-1A  -> 41-1A   17.432270  140600.8    71.1   -0.00035   0.20814   0.20816   0.20814
  0-1A  -> 42-1A   17.868740  144121.1    69.4    0.00028  -0.00009   0.00003   0.00005
  0-1A  -> 43-1A   18.032724  145443.7    68.8   -0.00054   0.00034  -0.00008  -0.00026
  0-1A  -> 44-1A   18.141352  146319.9    68.3    0.00034   0.17491  -0.26314   0.08817
  0-1A  -> 45-1A   18.141428  146320.5    68.3   -0.00043  -0.20285  -0.05009   0.25292
  0-1A  -> 46-1A   18.754117  151262.2    66.1    0.00021   0.00010  -0.00002  -0.00009
  0-1A  -> 47-1A   19.060390  153732.4    65.0    0.00043  -0.06479   0.10842  -0.04345
  0-1A  -> 48-1A   19.060574  153733.9    65.0   -0.00036   0.08788   0.01236  -0.10018
  0-1A  -> 49-1A   19.104612  154089.1    64.9   -0.00019   0.00014  -0.00002  -0.00012
  0-1A  -> 50-1A   19.273439  155450.8    64.3    0.00034   0.06852   0.06832   0.06858

Total run time:        6.625 sec

           *** ORCA-CIS/TD-DFT FINISHED WITHOUT ERROR ***
-----------------------
CIS/TD-DFT TOTAL ENERGY
-----------------------

    E(SCF)  =   -500.066479693 Eh
    DE(CIS) =      0.264673997 Eh (Root  1)
    ----------------------------- ---------
    E(tot)  =   -499.801805696 Eh


Maximum memory used throughout the entire CIS-calculation: 182.9 MB
=> NOW LEAVING ORCA_CIS

-------------------------   --------------------
FINAL SINGLE POINT ENERGY      -499.801805695659
-------------------------   --------------------


------------------------------------------------------------------------------
                              ORCA PROPERTY CALCULATIONS
------------------------------------------------------------------------------

GBWName                                 ... CH3Cl.gbw
Number of atoms                         ...      5
Number of basis functions               ...    137
Max core memory                         ...   1024 MB

Electric properties:
Dipole moment                           ... YES
Quadrupole moment                       ...  NO
Static polarizability (Dipole/Dipole)   ...  NO
Static polarizability (Dipole/Quad.)    ...  NO
Static polarizability (Quad./Quad.)     ...  NO
Static polarizability (Velocity)        ...  NO

Atomic electric properties:
Dipole moment                           ...  NO
Quadrupole moment                       ...  NO
Static polarizability                   ...  NO

Choice of electric origin               ... Center of mass
Position of electric origin             ...     1.365452     1.365452     1.365452

General magnetic properties:
Magnetizability                         ...  NO

EPR properties:
g-Tensor (aka g-matrix)                 ...  NO
Zero-Field splitting spin-orbit         ...  NO
Zero-field splitting spin-spin          ...  NO
Hyperfine couplings                     ...  NO (   0 nuclei)
Quadrupole couplings                    ...  NO (   0 nuclei)
Contact density                         ...  NO (   0 nuclei)

NMR properties:
Chemical shifts                         ...  NO (   0 nuclei)
Spin-rotation constants                 ...  NO (   0 nuclei)
Spin-spin couplings                     ...  NO (   0 nuclei,    0 pairs)

Choice of magnetic origin               ... GIAO
Position of magnetic origin             ...     0.000000     0.000000     0.000000

Properties with geometric perturbations:
SCF Hessian                             ...  NO
IR spectrum                             ...  NO
VCD spectrum                            ...  NO
X-ray spectroscopy properties:
SCF XES/XAS/RIXS spectra                ...  NO


-------------
DIPOLE MOMENT
-------------

Method             : SCF
Type of density    : Electron Density
Multiplicity       :   1
Irrep              :   0
Energy             :  -500.0664796930170155 Eh
Relativity type    : 
Basis              : AO
                                X                 Y                 Z
Electronic contribution:      2.557220386       2.557392486       2.557185719
Nuclear contribution   :     -3.001283672      -3.001283672      -3.001283672
                        -----------------------------------------
Total Dipole Moment    :     -0.444063285      -0.443891186      -0.444097953
                        -----------------------------------------
Magnitude (a.u.)       :      0.769060841
Magnitude (Debye)      :      1.954797308



--------------------
Rotational spectrum 
--------------------
 
Rotational constants in cm-1:             5.245637             0.436954             0.436954 
Rotational constants in MHz :        157260.226326         13099.545846         13099.545846 

Dipole components along the rotational axes: 
x,y,z [a.u.] :    -0.769061    -0.000099    -0.000122 
x,y,z [Debye]:    -1.954797    -0.000251    -0.000309 

 

Dipole moment calculation done in   0.0 sec 

Maximum memory used throughout the entire PROP-calculation: 7.0 MB

--------------------------------
SUGGESTED CITATIONS FOR THIS RUN
--------------------------------

Below you find a list of papers that are relevant to this ORCA run
We neither can nor want to force you to cite these papers, but we appreciate if you do
You receive ORCA, which is the product of decades of hard work by many enthusiastic individuals, for free
The only thing we kindly ask in return is that you cite our papers,
We deeply appreciate it, if you show your appreciation for ORCA by not just citing the generic ORCA reference.

Please note that relegating all ORCA citations to the supporting information does *not* help us.
SI sections are not indexed - citations you put there will not count into any citation statistics
But we need these citations in order to attract the funding resources that allow us to do what we are doing

Therefore, if you are a happy ORCA user, please consider citing a few of the papers listed below in the main body of your paper

In addition to the list printed below, the program has created the file CH3Cl.bibtex that contains the list in bibtex format
You can import this file easily into all common literature databanks and citation aid programs


List of essential papers. We consider these as the minimum necessary citations

  1. Neese,F.
     Software update: the ORCA program system, version 5.0
     WIRES Comput. Molec. Sci., 2022 12(1)e1606
     doi.org/10.1002/wcms.1606

List of papers to cite with high priority. The work reported in these papers was absolutely
necessary for this run to complete.
Our perspective: the developers of density functionals and basis sets usually get cited in chemistry papers
Good! But without the algorithms to do something with them, the functionals or basis sets would not do anything.
Hence, in our opinion, the algorithm design and method developments papers are equally worthy of getting cited

  1. Neese,F.; Olbrich,G.
     Efficient use of the resolution of the identity approximation in time-dependent density functional calculations with hybrid density functionals
     Chem. Phys. Lett., 2002 362 170-178
     doi.org/10.1016/s0009-2614(02)01053-9
  2. Neese,F.
     An improvement of the resolution of the identity approximation for the formation of the Coulomb matrix
     J. Comp. Chem., 2003 24(14)1740-1747
     doi.org/10.1002/jcc.10318
  3. Neese,F.; Wennmohs,F.; Hansen,A.; Becker,U.
     Efficient, approximate and parallel Hartree-Fock and hybrid DFT calculations. A 'chain-of-spheres' algorithm for the Hartree-Fock exchange
     Chem. Phys., 2009 356(1-3)98-109
     doi.org/10.1016/j.chemphys.2008.10.036
  4. Helmich-Paris,B.; de Souza,B.; Neese,F.; Izsák,R.
     An improved chain of spheres for exchange algorithm
     J. Chem. Phys., 2021 155 104109
     doi.org/doi: 10.1063/5.0058766.
  5. Neese,F.
     The SHARK Integral Generation and Digestion System
     J. Comp. Chem., 2022  1-16
     doi.org/10.1002/jcc.26942

List of suggested additional citations. These are papers that are important in the 'surrounding' of 
of this run, or papers that preceded the highly important papers. If you like your results we are grateful for a citation.

  1. Izsak,R.; Neese,F.
     An overlap fitted chain of spheres exchange method
     J. Chem. Phys., 2011 135 144105
     doi.org/10.1063/1.3646921
  2. Izsak,R.; Hansen,A.; Neese,F.
     The resolution of identity and chain of spheres approximations for the LPNO-CCSD singles Fock term
     Molec. Phys., 2012 110 2413-2417
     doi.org/10.1080/00268976.2012.687466
  3. Neese,F.
     The ORCA program system
     WIRES Comput. Molec. Sci., 2012 2(1)73-78
     doi.org/10.1002/wcms.81
  4. Izsak,R.; Neese,F.; Klopper,W.
     Robust fitting techniques in the chain of spheres approximation to the Fock exchange: The role of the complementary space
     J. Chem. Phys., 2013 139 
     doi.org/10.1063/1.4819264
  5. Neese,F.
     Software update: the ORCA program system, version 4.0
     WIRES Comput. Molec. Sci., 2018 8(1)1-6
     doi.org/10.1002/wcms.1327
  6. Neese,F.; Wennmohs,F.; Becker,U.; Riplinger,C.
     The ORCA quantum chemistry program package
     J. Chem. Phys., 2020 152 Art. No. L224108
     doi.org/10.1063/5.0004608

List of optional additional citations

  1. Neese,F.
     Approximate second-order SCF convergence for spin unrestricted wavefunctions
     Chem. Phys. Lett., 2000 325(1-3)93-98
     doi.org/10.1016/s0009-2614(00)00662-x

Timings for individual modules:

Sum of individual times          ...       11.234 sec (=   0.187 min)
Startup calculation              ...        0.525 sec (=   0.009 min)   4.7 %
SCF iterations                   ...        3.968 sec (=   0.066 min)  35.3 %
Property integrals               ...        0.051 sec (=   0.001 min)   0.5 %
Property calculations            ...        0.047 sec (=   0.001 min)   0.4 %
CIS module                       ...        6.643 sec (=   0.111 min)  59.1 %
                             ****ORCA TERMINATED NORMALLY****
TOTAL RUN TIME: 0 days 0 hours 0 minutes 11 seconds 312 msec
