
                                 *****************
                                 * O   R   C   A *
                                 *****************

                                            #,                                       
                                            ###                                      
                                            ####                                     
                                            #####                                    
                                            ######                                   
                                           ########,                                 
                                     ,,################,,,,,                         
                               ,,#################################,,                 
                          ,,##########################################,,             
                       ,#########################################, ''#####,          
                    ,#############################################,,   '####,        
                  ,##################################################,,,,####,       
                ,###########''''           ''''###############################       
              ,#####''   ,,,,##########,,,,          '''####'''          '####       
            ,##' ,,,,###########################,,,                        '##       
           ' ,,###''''                  '''############,,,                           
         ,,##''                                '''############,,,,        ,,,,,,###''
      ,#''                                            '''#######################'''  
     '                                                          ''''####''''         
             ,#######,   #######,   ,#######,      ##                                
            ,#'     '#,  ##    ##  ,#'     '#,    #''#        ,####,   ,####,        
            ##       ##  ##   ,#'  ##            #'  '#       #'       #'  '#        
            ##       ##  #######   ##           ,######,      #####,   #    #        
            '#,     ,#'  ##    ##  '#,     ,#' ,#      #,     #,   #   #,  ,#        
             '#######'   ##     ##  '#######'  #'      '#     '####' # '####'        



                #########################################################
                #                        -***-                          #
                #          Department of theory and spectroscopy        #
                #                                                       #
                #                      Frank Neese                      #
                #                                                       #
                #     Directorship, Architecture, Infrastructure        #
                #                    SHARK, DRIVERS                     #
                #        Core code/Algorithms in most modules           #
                #                                                       #
                #        Max Planck Institute fuer Kohlenforschung      #
                #                Kaiser Wilhelm Platz 1                 #
                #                 D-45470 Muelheim/Ruhr                 #
                #                      Germany                          #
                #                                                       #
                #                  All rights reserved                  #
                #                        -***-                          #
                #########################################################


                         Program Version 6.0.1  -  RELEASE   -


 With contributions from (in alphabetic order):
[Max-Planck-Institut fuer Kohlenforschung]                               
  Daniel Aravena         : Magnetic Suceptibility                        
  Michael Atanasov       : Ab Initio Ligand Field Theory (pilot matlab implementation)
  Alexander A. Auer      : GIAO ZORA, VPT2 properties, NMR spectrum      
  Ute Becker             : All parallelization in ORCA, NUMFREQ, NUMCALC 
  Giovanni Bistoni       : ED, misc. LED, open-shell LED, HFLD           
  Martin Brehm           : Molecular dynamics                            
  Dmytro Bykov           : pre 5.0 version of the SCF Hessian            
  Marcos Casanova-Páez   : Triplet and SCS-CIS(D). UHF-(DLPNO)-IP/EA/STEOM-CCSD. UHF-CVS-IP/STEOM-CCSD   
  Vijay G. Chilkuri      : MRCI spin determinant printing, contributions to CSF-ICE 
  Pauline Colinet        : FMM embedding                                 
  Dipayan Datta          : RHF DLPNO-CCSD density                        
  Achintya Kumar Dutta   : EOM-CC, STEOM-CC                              
  Nicolas Foglia         : Exact transition moments, OPA infrastructure, MCD improvements    
  Dmitry Ganyushin       : Spin-Orbit,Spin-Spin,Magnetic field MRCI      
  Miquel Garcia-Rates    : C-PCM and meta-GGA Hessian, CCSD/C-PCM, Gaussian charge scheme 
  Tiago L. C. Gouveia    : GS-ROHF, GS-ROCIS                             
  Yang Guo               : DLPNO-NEVPT2, F12-NEVPT2, CIM, IAO-localization        
  Andreas Hansen         : Spin unrestricted coupled pair/coupled cluster methods 
  Ingolf Harden          : AUTO-CI MPn and infrastructure                
  Benjamin Helmich-Paris : MC-RPA, TRAH-(SCF,CASSCF), AVAS, COSX integrals, SCF dyn. polar. 
  Lee Huntington         : MR-EOM, pCC                                   
  Robert Izsak           : Overlap fitted RIJCOSX, COSX-SCS-MP3, EOM     
  Riya Kayal             : Wick's Theorem for AUTO-CI, AUTO-CI UHF-CCSDT 
  Emily Kempfer          : AUTO-CI, RHF CISDT and CCSDT                  
  Christian Kollmar      : KDIIS, OOCD, Brueckner-CCSD(T), CCSD density, CASPT2, CASPT2-K, improved NEVPT2 
  Axel Koslowski         : Symmetry handling                             
  Simone Kossmann        : meta-GGA functionals, TD-DFT gradient, OOMP2, (MP2 Hessian; deprecated post 5.0) 
  Lucas Lang             : DCDCAS                                        
  Marvin Lechner         : AUTO-CI (C++ implementation), FIC-MRCC        
  Spencer Leger          : CASSCF response                               
  Dagmar Lenk            : GEPOL surface, SMD, ORCA-2-JSON               
  Dimitrios Liakos       : Extrapolation schemes; Compound Job, initial MDCI parallelization 
  Dimitrios Manganas     : Further ROCIS development; embedding schemes. LFT, Crystal Embedding 
  Dimitrios Pantazis     : SARC Basis sets                               
  Anastasios Papadopoulos: AUTO-CI, single reference methods and gradients 
  Taras Petrenko         : pre 6.0 DFT Hessian and TD-DFT gradient, (ASA, deprecated), ECA, 1-Electron XAS/XES, NRVS 
  Peter Pinski           : DLPNO-MP2, DLPNO-MP2 Gradient                 
  Christoph Reimann      : Effective Core Potentials                     
  Marius Retegan         : Local ZFS, SOC                                
  Christoph Riplinger    : Optimizer, TS searches, QM/MM, DLPNO-CCSD(T), (RO)-DLPNO pert. Triples 
  Michael Roemelt        : Original ROCIS implementation                 
  Masaaki Saitow         : Open-shell DLPNO-CCSD energy and density      
  Barbara Sandhoefer     : DKH picture change effects                    
  Kantharuban Sivalingam : CASSCF convergence/infrastructure, NEVPT2 and variants, FIC-MRCI 
  Bernardo de Souza      : ESD, SOC TD-DFT                               
  Georgi L. Stoychev     : AutoAux, RI-MP2 NMR, DLPNO-MP2 response, X2C  
  Van Anh Tran           : RI-MP2 g-tensors                              
  Willem Van den Heuvel  : Paramagnetic NMR                              
  Zikuan Wang            : NOTCH, Electric field optimization            
  Frank Wennmohs         : Technical directorship and infrastructure     
  Hang Xu                : AUTO-CI-Response properties                   
                                                                         
[FACCTs GmbH]                                                            
  Markus Bursch, Miquel Garcia-Rates, Christoph Riplinger, Bernardo de Souza, Georgi L. Stoychev 
                                                                 
  APM, Basis sets (HGBS, AHGBS, def-TZVP (Ac-Lr), def2-XVPD (La-Lu)), CI-OPT, improved COSX, DLPNO-Multilevel,           
  DOCKER, DRACO, updates on ESD, GOAT, IRC, LR-CPCM, MBIS, meta-GGA TD-DFT gradient, ML-optimized integration grids, 
  MM, NACMEs, nearIR, NEB, NEB-TS, NL-DFT gradient (VV10), 2- and 3-layer-ONIOM, interface openCOSMO-RS, QMMM,   
  Crystal-QMMM, SF, symmetry and pop. for TD-DFT, r2SCAN hybrids, SOLVATOR                                   
                                                                         
[Other institutions]                                                     
  V. Asgeirsson          : NEB                                           
  Christoph Bannwarth    : sTDA-DFT, sTD-DFT, PBEh-3c, B97-3c, D3        
  Sebastian Ehlert       : rSCAN, r2SCAN, r2SCAN-3c, D4, dhf basis sets  
  Marvin Friede          : D4 for Fr, Ra, Ac-Lr                          
  Lars Goerigk           : TD-DFT with DH, B97 family of functionals     
  Stefan Grimme          : VdW corrections, initial TS optimization, DFT functionals, gCP, sTDA/sTD-DF 
  Waldemar Hujo          : DFT-NL                                        
  H. Jonsson             : NEB                                           
  Holger Kruse           : gCP                                           
  Marcel Mueller         : wB97X-3c, vDZP basis set                      
  Hagen Neugebauer       : wr2SCAN                                       
  Tobias Risthaus        : range-separated hybrid DFT                    
  Lukas Wittmann         : regularized MP2, r2SCAN double-hybrids, wr2SCAN        
                                                                         
We gratefully acknowledge several colleagues who have allowed us to      
interface, adapt or use parts of their codes:                            
  Ed Valeev, F. Pavosevic, A. Kumar             : LibInt (2-el integral package), F12 methods 
  Garnet Chan, S. Sharma, J. Yang, R. Olivares  : DMRG                   
  Ulf Ekstrom                                   : XCFun DFT Library      
  Mihaly Kallay                                 : mrcc  (arbitrary order and MRCC methods)
  Frank Weinhold                                : gennbo (NPA and NBO analysis)           
  Simon Mueller                                 : openCOSMO-RS                            
  Christopher J. Cramer and Donald G. Truhlar   : smd solvation model                     
  S Lehtola, MJT Oliveira, MAL Marques          : LibXC Library                           
  Liviu Ungur et al                             : ANISO software                          


 Your calculation uses the libint2 library for the computation of 2-el integrals
 For citations please refer to: http://libint.valeyev.net

 Your ORCA version has been built with support for libXC version: 6.2.2
 For citations please refer to: https://libxc.gitlab.io

 This ORCA versions uses:
   CBLAS   interface :  Fast vector & matrix operations
   LAPACKE interface :  Fast linear algebra routines
   SCALAPACK package :  Parallel linear algebra routines
   Shared memory     :  Shared parallel matrices
   BLAS/LAPACK       :  OpenBLAS 0.3.27  USE64BITINT DYNAMIC_ARCH NO_AFFINITY Haswell SINGLE_THREADED
        Core in use  :  Haswell
   Copyright (c) 2011-2014, The OpenBLAS Project




***************************************
The coordinates will be read from file: chfclbr.xyz
***************************************


================================================================================

----- Orbital basis set information -----
Your calculation utilizes the basis: def2-SVP
   F. Weigend and R. Ahlrichs, Phys. Chem. Chem. Phys. 7, 3297 (2005).

----- AuxJ basis set information -----
Your calculation utilizes the auxiliary basis: SARC/J 
   decontracted def2/J up to Kr:
   F. Weigend, Phys. Chem. Chem. Phys. 8, 1057 (2006)
   and SARC auxiliary basis sets beyond Kr:
   D. A. Pantazis and F. Neese, J. Chem. Theory Comput. 5, 2229 (2009).
   D. A. Pantazis, X. Y. Chen, C. R. Landis and F. Neese, J. Chem. Theory Comput. 4, 908 (2008).
   D. A. Pantazis and F. Neese, Theor. Chem. Acc. 131, 1292 (2012).
   D. A. Pantazis and F. Neese, J. Chem. Theory Comput. 7, 677 (2011).

----- AuxC basis set information -----
Your calculation utilizes the auxiliary basis: def2-SVP/C
  H-La, Hf-Rn : A. Hellweg, C. Hattig, S. Hofener and W. Klopper, Theor. Chem. Acc. 117, 587 (2007).
        Ce-Lu : J. Chmela and M. E. Harding, Mol. Phys. (2018).

================================================================================
                                        WARNINGS
                       Please study these warnings very carefully!
================================================================================


WARNING: In scalar relativistic gradient/hessian runs we need the one-center approximation
  ===> : %rel OneCenter is turned on

WARNING: Requested PictureChange>0 is not available for DKH one-center approximation (OneCenter=true).
         Continueing the run with OneCenter=true and no picture change (PictureChange=0).
         If picture change is important, repeat the calculation with OneCenter=false. 

WARNING: Geometry Optimization
  ===> : Switching off AutoStart
         For restart on a previous wavefunction, please use MOREAD



***************************************
The coordinates will be read from file: chfclbr.xyz
***************************************


================================================================================

----- Orbital basis set information -----
Your calculation utilizes the basis: def2-SVP
   F. Weigend and R. Ahlrichs, Phys. Chem. Chem. Phys. 7, 3297 (2005).

----- AuxJ basis set information -----
Your calculation utilizes the auxiliary basis: SARC/J 
   decontracted def2/J up to Kr:
   F. Weigend, Phys. Chem. Chem. Phys. 8, 1057 (2006)
   and SARC auxiliary basis sets beyond Kr:
   D. A. Pantazis and F. Neese, J. Chem. Theory Comput. 5, 2229 (2009).
   D. A. Pantazis, X. Y. Chen, C. R. Landis and F. Neese, J. Chem. Theory Comput. 4, 908 (2008).
   D. A. Pantazis and F. Neese, Theor. Chem. Acc. 131, 1292 (2012).
   D. A. Pantazis and F. Neese, J. Chem. Theory Comput. 7, 677 (2011).

----- AuxC basis set information -----
Your calculation utilizes the auxiliary basis: def2-SVP/C
  H-La, Hf-Rn : A. Hellweg, C. Hattig, S. Hofener and W. Klopper, Theor. Chem. Acc. 117, 587 (2007).
        Ce-Lu : J. Chmela and M. E. Harding, Mol. Phys. (2018).

================================================================================
                                        WARNINGS
                       Please study these warnings very carefully!
================================================================================


WARNING: Requested PictureChange>0 is not available for DKH one-center approximation (OneCenter=true).
         Continueing the run with OneCenter=true and no picture change (PictureChange=0).
         If picture change is important, repeat the calculation with OneCenter=false. 
INFO   : Checking CIS options ...

================================================================================
                                       INPUT FILE
================================================================================
NAME = chfclbr.inp
|  1> !def2-SVP PBE0 SARC/J def2-SVP/C Opt
|  2> * xyzfile 0 1 chfclbr.xyz
|  3> %scf
|  4> MaxIter 100
|  5> end
|  6> %rel
|  7> method DKH
|  8> order 2
|  9> picturechange 2
| 10> end
| 11> $new_job
| 12> !def2-SVP PBE0 RI-SOMF(1X) SARC/J def2-SVP/C
| 13> %TDDFT
| 14> NROOTS  3
| 15> DOSOC   TRUE
| 16> TDA     TRUE
| 17> TRIPLETS TRUE
| 18> END
| 19> * xyzfile 0 1 chfclbr.xyz
| 20> %scf
| 21> MaxIter 100
| 22> end
| 23> %rel
| 24> method DKH
| 25> order 2
| 26> picturechange 2
| 27> SOCType 3
| 28> SOCFlags 1,3,3,0
| 29> SOCMaxCenter 4
| 30> end
| 31> 
| 32>                          ****END OF INPUT****
================================================================================


                 $$$$$$$$$$$$$$$$$$$$$$$$$$$$$$$$$$$$$$$$$$$$$$ 
                 $ THERE ARE  2 JOBS TO BE PROCESSED THIS RUN $
                 $$$$$$$$$$$$$$$$$$$$$$$$$$$$$$$$$$$$$$$$$$$$$$ 




                 $$$$$$$$$$$$$$$$  JOB NUMBER  1 $$$$$$$$$$$$$$


                       *****************************
                       * Geometry Optimization Run *
                       *****************************

Geometry optimization settings:
Update method            Update   .... BFGS
Choice of coordinates    CoordSys .... (2022) Redundant Internals
Initial Hessian          InHess   .... Almloef's Model
Max. no of cycles        MaxIter  .... 50

Convergence Tolerances:
Energy Change            TolE     ....  5.0000e-06 Eh
Max. Gradient            TolMAXG  ....  3.0000e-04 Eh/bohr
RMS Gradient             TolRMSG  ....  1.0000e-04 Eh/bohr
Max. Displacement        TolMAXD  ....  4.0000e-03 bohr
RMS Displacement         TolRMSD  ....  2.0000e-03 bohr
Strict Convergence                .... False

------------------------------------------------------------------------------
                        ORCA OPTIMIZATION COORDINATE SETUP
------------------------------------------------------------------------------

The optimization will be done in redundant internal coordinates (2022)
Making redundant internal coordinates   ...  (2022 redundants) done
Evaluating the initial hessian          ...  (Almloef) done
Evaluating the coordinates              ...  done
Calculating the B-matrix                .... done
Calculating the G-matrix                .... done
Diagonalizing the G-matrix              .... done
The first mode is                       ....   91
The number of degrees of freedom        ....    9

    -----------------------------------------------------------------
                    Redundant Internal Coordinates


    -----------------------------------------------------------------
         Definition                    Initial Value    Approx d2E/dq
    -----------------------------------------------------------------
      1. B(H   1,C   0)                  1.9258         0.016707   
      2. B(F   2,C   0)                  1.0959         1.531503   
      3. B(F   2,H   1)                  2.4988         0.001694   
      4. B(Cl  3,F   2)                  1.8009         0.257833   
      5. B(Cl  3,C   0)                  1.0959         4.129390   
      6. B(Cl  3,H   1)                  2.4988         0.004568   
      7. B(Br  4,Cl  3)                  1.8009         1.041367   
      8. B(Br  4,H   1)                  2.4988         0.006843   
      9. B(Br  4,F   2)                  1.8009         0.386221   
     10. B(Br  4,C   0)                  1.0959         6.185630   
     11. A(Cl  3,C   0,Br  4)          110.4985         1.112695   
     12. A(H   1,C   0,Cl  3)          108.4233         0.302979   
     13. A(F   2,C   0,Br  4)          110.4985         0.851596   
     14. A(F   2,C   0,Cl  3)          110.4985         0.767445   
     15. A(H   1,C   0,F   2)          108.4233         0.248403   
     16. A(H   1,C   0,Br  4)          108.4233         0.329520   
     17. A(Cl  3,H   1,Br  4)           42.2447         0.125978   
     18. A(F   2,H   1,Cl  3)           42.2447         0.112654   
     19. A(C   0,H   1,Br  4)           24.5892         0.134905   
     20. A(C   0,H   1,Cl  3)           24.5892         0.129498   
     21. A(C   0,H   1,F   2)           24.5892         0.118365   
     22. A(F   2,H   1,Br  4)           42.2447         0.115813   
     23. A(Cl  3,F   2,Br  4)           60.0000         0.373906   
     24. A(C   0,F   2,Br  4)           34.7508         0.491454   
     25. A(H   1,F   2,Br  4)           68.8777         0.163140   
     26. A(C   0,F   2,Cl  3)           34.7508         0.446786   
     27. A(H   1,F   2,Cl  3)           68.8777         0.154911   
     28. A(C   0,F   2,H   1)           46.9875         0.182105   
     29. A(C   0,Cl  3,F   2)           34.7508         0.569285   
     30. A(H   1,Cl  3,Br  4)           68.8776         0.224638   
     31. A(H   1,Cl  3,F   2)           68.8776         0.179899   
     32. A(C   0,Cl  3,H   1)           46.9875         0.261365   
     33. A(F   2,Cl  3,Br  4)           60.0000         0.466948   
     34. A(C   0,Cl  3,Br  4)           34.7508         0.805676   
     35. A(H   1,Br  4,Cl  3)           68.8776         0.242749   
     36. A(H   1,Br  4,F   2)           68.8776         0.204899   
     37. A(C   0,Br  4,H   1)           46.9875         0.308613   
     38. A(F   2,Br  4,Cl  3)           60.0000         0.514133   
     39. A(C   0,Br  4,Cl  3)           34.7508         0.894569   
     40. A(C   0,Br  4,F   2)           34.7508         0.696257   
     41. D(Cl  3,H   1,C   0,F   2)   -120.0000         0.001661   
     42. D(Br  4,H   1,C   0,Cl  3)   -120.0000         0.001661   
     43. D(F   2,H   1,C   0,Br  4)   -120.0000         0.001661   
     44. D(Cl  3,H   1,C   0,Br  4)    120.0000         0.001661   
     45. D(Br  4,H   1,C   0,F   2)    120.0000         0.001661   
     46. D(F   2,H   1,C   0,Cl  3)    120.0000         0.001661   
     47. D(Br  4,F   2,C   0,H   1)   -118.6958         0.332251   
     48. D(C   0,F   2,H   1,Cl  3)     32.4126         0.001502   
     49. D(H   1,F   2,C   0,Cl  3)   -118.6958         0.332251   
     50. D(Cl  3,F   2,C   0,Br  4)   -122.6084         0.332251   
     51. D(Br  4,F   2,H   1,C   0)     32.4126         0.001502   
     52. D(Cl  3,F   2,H   1,Br  4)    -64.8253         0.001502   
     53. D(Cl  3,F   2,H   1,C   0)    -32.4126         0.001502   
     54. D(C   0,F   2,H   1,Br  4)    -32.4126         0.001502   
     55. D(Cl  3,F   2,C   0,H   1)    118.6958         0.332251   
     56. D(Br  4,F   2,H   1,Cl  3)     64.8253         0.001502   
     57. D(Br  4,F   2,C   0,Cl  3)    122.6084         0.332251   
     58. D(H   1,F   2,C   0,Br  4)    118.6958         0.332251   
     59. D(Br  4,Cl  3,H   1,F   2)    -64.8253         0.001504   
     60. D(F   2,Cl  3,H   1,Br  4)     64.8253         0.001504   
     61. D(H   1,Cl  3,C   0,F   2)    118.6958         0.728815   
     62. D(H   1,Cl  3,C   0,Br  4)   -118.6958         0.728815   
     63. D(Br  4,Cl  3,H   1,C   0)    -32.4126         0.001504   
     64. D(C   0,Cl  3,H   1,Br  4)     32.4126         0.001504   
     65. D(Br  4,Cl  3,C   0,H   1)    118.6958         0.728815   
     66. D(F   2,Cl  3,H   1,C   0)     32.4127         0.001504   
     67. D(Br  4,Cl  3,C   0,F   2)   -122.6084         0.728815   
     68. D(F   2,Cl  3,C   0,H   1)   -118.6958         0.728815   
     69. D(C   0,Cl  3,H   1,F   2)    -32.4127         0.001504   
     70. D(C   0,Cl  3,F   2,Br  4)    -33.6722         0.003419   
     71. D(F   2,Cl  3,C   0,Br  4)    122.6084         0.728815   
     72. D(H   1,Cl  3,F   2,Br  4)    -77.1124         0.003419   
     73. D(H   1,Cl  3,F   2,C   0)    -43.4402         0.003419   
     74. D(Br  4,Cl  3,F   2,H   1)     77.1124         0.003419   
     75. D(Br  4,Cl  3,F   2,C   0)     33.6722         0.003419   
     76. D(C   0,Cl  3,F   2,H   1)     43.4402         0.003419   
     77. D(H   1,Br  4,Cl  3,F   2)    -77.1124         0.008156   
     78. D(F   2,Br  4,Cl  3,H   1)     77.1124         0.008156   
     79. D(F   2,Br  4,Cl  3,C   0)     33.6722         0.008156   
     80. D(C   0,Br  4,Cl  3,H   1)     43.4402         0.008156   
     81. D(H   1,Br  4,F   2,Cl  3)     77.1124         0.004204   
     82. D(H   1,Br  4,F   2,C   0)     43.4402         0.004204   
     83. D(Cl  3,Br  4,F   2,H   1)    -77.1124         0.004204   
     84. D(Cl  3,Br  4,F   2,C   0)    -33.6722         0.004204   
     85. D(C   0,Br  4,F   2,H   1)    -43.4402         0.004204   
     86. D(C   0,Br  4,F   2,Cl  3)     33.6722         0.004204   
     87. D(Cl  3,Br  4,H   1,F   2)     64.8253         0.001505   
     88. D(Cl  3,Br  4,H   1,C   0)     32.4126         0.001505   
     89. D(F   2,Br  4,H   1,Cl  3)    -64.8253         0.001505   
     90. D(F   2,Br  4,H   1,C   0)    -32.4127         0.001505   
     91. D(C   0,Br  4,H   1,Cl  3)    -32.4126         0.001505   
     92. D(C   0,Br  4,H   1,F   2)     32.4127         0.001505   
     93. D(H   1,Br  4,C   0,Cl  3)    118.6958         1.033538   
     94. D(C   0,Br  4,Cl  3,F   2)    -33.6722         0.008156   
     95. D(H   1,Br  4,C   0,F   2)   -118.6958         1.033538   
     96. D(Cl  3,Br  4,C   0,H   1)   -118.6958         1.033538   
     97. D(Cl  3,Br  4,C   0,F   2)    122.6084         1.033538   
     98. D(H   1,Br  4,Cl  3,C   0)    -43.4402         0.008156   
     99. D(F   2,Br  4,C   0,H   1)    118.6958         1.033538   
    100. D(F   2,Br  4,C   0,Cl  3)   -122.6084         1.033538   
    -----------------------------------------------------------------

Number of atoms                         .... 5
Number of degrees of freedom            .... 100


         *************************************************************
         *                GEOMETRY OPTIMIZATION CYCLE   1            *
         *************************************************************
---------------------------------
CARTESIAN COORDINATES (ANGSTROEM)
---------------------------------
  C     -0.007044   -0.007044   -0.007044
  H      1.104839    1.104839    1.104839
  F     -0.631498    0.641957   -0.631498
  Cl     0.641957   -0.631498   -0.631498
  Br    -0.631498   -0.631498    0.641957

----------------------------
CARTESIAN COORDINATES (A.U.)
----------------------------
  NO LB      ZA    FRAG     MASS         X           Y           Z
   0 C     6.0000    0    12.011   -0.013311   -0.013311   -0.013311
   1 H     1.0000    0     1.008    2.087843    2.087844    2.087843
   2 F     9.0000    0    18.998   -1.193358    1.213124   -1.193358
   3 Cl   17.0000    0    35.453    1.213123   -1.193358   -1.193358
   4 Br   35.0000    0    79.900   -1.193358   -1.193358    1.213123

--------------------------------
INTERNAL COORDINATES (ANGSTROEM)
--------------------------------
 C      0   0   0     0.000000000000     0.00000000     0.00000000
 H      1   0   0     1.925838010351     0.00000000     0.00000000
 F      1   2   0     1.095941782738   108.42330768     0.00000000
 Cl     1   2   3     1.095941618662   108.42333546   119.99998902
 Br     1   2   3     1.095941584824   108.42334068   240.00000625

---------------------------
INTERNAL COORDINATES (A.U.)
---------------------------
 C      0   0   0     0.000000000000     0.00000000     0.00000000
 H      1   0   0     3.639306417860     0.00000000     0.00000000
 F      1   2   0     2.071029828097   108.42330768     0.00000000
 Cl     1   2   3     2.071029518037   108.42333546   119.99998902
 Br     1   2   3     2.071029454093   108.42334068   240.00000625

---------------------
BASIS SET INFORMATION
---------------------
There are 5 groups of distinct atoms

 Group   1 Type C   : 7s4p1d contracted to 3s2p1d pattern {511/31/1}
 Group   2 Type H   : 4s1p contracted to 2s1p pattern {31/1}
 Group   3 Type F   : 7s4p1d contracted to 3s2p1d pattern {511/31/1}
 Group   4 Type Cl  : 10s7p1d contracted to 4s3p1d pattern {5311/511/1}
 Group   5 Type Br  : 14s10p6d contracted to 5s4p3d pattern {63311/5311/411}

Atom   0C    basis set group =>   1
Atom   1H    basis set group =>   2
Atom   2F    basis set group =>   3
Atom   3Cl   basis set group =>   4
Atom   4Br   basis set group =>   5
---------------------------------
AUXILIARY/J BASIS SET INFORMATION
---------------------------------
There are 5 groups of distinct atoms

 Group   1 Type C   : 12s5p4d2f1g contracted to 12s5p4d2f1g pattern {111111111111/11111/1111/11/1}
 Group   2 Type H   : 5s2p1d contracted to 5s2p1d pattern {11111/11/1}
 Group   3 Type F   : 12s5p4d2f1g contracted to 12s5p4d2f1g pattern {111111111111/11111/1111/11/1}
 Group   4 Type Cl  : 14s5p5d2f1g contracted to 14s5p5d2f1g pattern {11111111111111/11111/11111/11/1}
 Group   5 Type Br  : 19s5p5d3f1g contracted to 19s5p5d3f1g pattern {1111111111111111111/11111/11111/111/1}

Atom   0C    basis set group =>   1
Atom   1H    basis set group =>   2
Atom   2F    basis set group =>   3
Atom   3Cl   basis set group =>   4
Atom   4Br   basis set group =>   5
---------------------------------
AUXILIARY/C BASIS SET INFORMATION
---------------------------------
There are 5 groups of distinct atoms

 Group   1 Type C   : 8s6p5d3f contracted to 6s5p4d1f pattern {311111/21111/2111/3}
 Group   2 Type H   : 4s3p2d contracted to 3s2p1d pattern {211/21/2}
 Group   3 Type F   : 8s6p5d3f contracted to 6s5p4d1f pattern {311111/21111/2111/3}
 Group   4 Type Cl  : 10s7p7d3f contracted to 8s5p5d2f pattern {31111111/31111/31111/12}
 Group   5 Type Br  : 10s9p8d6f4g contracted to 10s9p7d4f3g pattern {1111111111/111111111/2111111/2112/211}

Atom   0C    basis set group =>   1
Atom   1H    basis set group =>   2
Atom   2F    basis set group =>   3
Atom   3Cl   basis set group =>   4
Atom   4Br   basis set group =>   5
------------------------------------------------------------------------------
                             ORCA STARTUP CALCULATIONS
                           -- RI-GTO INTEGRALS CHOSEN --
------------------------------------------------------------------------------
------------------------------------------------------------------------------
                   ___                                                        
                  /   \      - P O W E R E D   B Y -                         
                 /     \                                                     
                 |  |  |   _    _      __       _____    __    __             
                 |  |  |  | |  | |    /  \     |  _  \  |  |  /  |          
                  \  \/   | |  | |   /    \    | | | |  |  | /  /          
                 / \  \   | |__| |  /  /\  \   | |_| |  |  |/  /          
                |  |  |   |  __  | /  /__\  \  |    /   |      \           
                |  |  |   | |  | | |   __   |  |    \   |  |\   \          
                \     /   | |  | | |  |  |  |  | |\  \  |  | \   \       
                 \___/    |_|  |_| |__|  |__|  |_| \__\ |__|  \__/        
                                                                              
                      - O R C A' S   B I G   F R I E N D -                    
                                      &                                       
                       - I N T E G R A L  F E E D E R -                       
                                                                              
 v1 FN, 2020, v2 2021, v3 2022-2024                                           
------------------------------------------------------------------------------


----------------------
SHARK INTEGRAL PACKAGE
----------------------

Number of atoms                             ...      5
Number of basis functions                   ...     83
Number of shells                            ...     35
Maximum angular momentum                    ...      2
Integral batch strategy                     ... SHARK/LIBINT Hybrid
RI-J (if used) integral strategy            ... SPLIT-RIJ (Revised 2003 algorithm where possible)
Printlevel                                  ...      1
Contraction scheme used                     ... SEGMENTED contraction
Prescreening option                         ... SCHWARTZ
   Thresh                                   ... 2.500e-11
   Tcut                                     ... 2.500e-12
   Tpresel                                  ... 2.500e-12 
Coulomb Range Separation                    ... NOT USED
Exchange Range Separation                   ... NOT USED
Multipole approximations                    ... NOT USED
Finite Nucleus Model                        ... NOT USED
CABS basis                                  ... NOT available
Auxiliary Coulomb fitting basis             ... AVAILABLE
   # of basis functions in Aux-J            ...    322
   # of shells in Aux-J                     ...    116
   Maximum angular momentum in Aux-J        ...      4
Auxiliary J/K fitting basis                 ... NOT available
Auxiliary Correlation fitting basis         ... AVAILABLE
   # of basis functions in Aux-C            ...    299
   # of shells in Aux-C                     ...     91
   Maximum angular momentum in Aux-C        ...      4
Auxiliary 'external' fitting basis          ... NOT available

Checking pre-screening integrals            ... done (  0.0 sec) Dimension = 35
Check shell pair data                       ... done (  0.0 sec)
Shell pair information
Shell pair cut-off parameter TPreSel        ...   2.5e-12
Total number of shell pairs                 ...       630
Shell pairs after pre-screening             ...       618
Total number of primitive shell pairs       ...      3095
Primitive shell pairs kept                  ...      2371
          la=0 lb=0:    147 shell pairs
          la=1 lb=0:    201 shell pairs
          la=1 lb=1:     77 shell pairs
          la=2 lb=0:    100 shell pairs
          la=2 lb=1:     72 shell pairs
          la=2 lb=2:     21 shell pairs

Calculating one electron integrals          ... done (  0.0 sec)
Calculating RI/J V-Matrix + Cholesky decomp.... done (  0.0 sec)
Calculating RI/C V-Matrix + Cholesky decomp.... done (  0.0 sec)
Calculating Nuclear repulsion               ... done (  0.0 sec) ENN=    503.636340980692 Eh

Diagonalization of the overlap matrix:
Smallest eigenvalue                        ... 6.838e-04
Time for diagonalization                   ...    0.001 sec
Threshold for overlap eigenvalues          ... 1.000e-07
Number of eigenvalues below threshold      ... 0
Time for construction of square roots      ...    0.000 sec
Total time needed                          ...    0.002 sec

-------------------
DFT GRID GENERATION
-------------------

General Integration Accuracy     IntAcc      ... 4.388
Radial Grid Type                 RadialGrid  ... OptM3 with GC (2021)
Angular Grid (max. ang.)         AngularGrid ... 4 (Lebedev-302)
Angular grid pruning method      GridPruning ... 4 (adaptive)
Weight generation scheme         WeightScheme... mBecke (2022)
Basis function cutoff            BFCut       ... 1.0000e-11
Integration weight cutoff        WCut        ... 1.0000e-14
Partially contracted basis set               ... off
Rotationally invariant grid construction     ... off
Angular grids for H and He will be reduced by one unit
Core-polarized basis detected: some atoms will have their core
                               angular grid increased.

Total number of grid points                  ...    34107
Total number of batches                      ...      536
Average number of points per batch           ...       63
Average number of grid points per atom       ...     6821

--------------------
COSX GRID GENERATION
--------------------

GRIDX 1
-------
General Integration Accuracy     IntAcc      ... 3.816
Radial Grid Type                 RadialGrid  ... OptM3 with GC (2021)
Angular Grid (max. ang.)         AngularGrid ... 1 (Lebedev-50)
Angular grid pruning method      GridPruning ... 4 (adaptive)
Weight generation scheme         WeightScheme... mBecke (2022)
Basis function cutoff            BFCut       ... 1.0000e-11
Integration weight cutoff        WCut        ... 1.0000e-14
Partially contracted basis set               ... on
Rotationally invariant grid construction     ... off
Angular grids for H and He will be reduced by one unit
Core-polarized basis detected: some atoms will have their core
                               angular grid increased.

Total number of grid points                  ...    10093
Total number of batches                      ...       82
Average number of points per batch           ...      123
Average number of grid points per atom       ...     2019
UseSFitting                                  ... on

GRIDX 2
-------
General Integration Accuracy     IntAcc      ... 4.020
Radial Grid Type                 RadialGrid  ... OptM3 with GC (2021)
Angular Grid (max. ang.)         AngularGrid ... 2 (Lebedev-110)
Angular grid pruning method      GridPruning ... 4 (adaptive)
Weight generation scheme         WeightScheme... mBecke (2022)
Basis function cutoff            BFCut       ... 1.0000e-11
Integration weight cutoff        WCut        ... 1.0000e-14
Partially contracted basis set               ... on
Rotationally invariant grid construction     ... off
Angular grids for H and He will be reduced by one unit
Core-polarized basis detected: some atoms will have their core
                               angular grid increased.

Total number of grid points                  ...    12646
Total number of batches                      ...      101
Average number of points per batch           ...      125
Average number of grid points per atom       ...     2529
UseSFitting                                  ... on

GRIDX 3
-------
General Integration Accuracy     IntAcc      ... 4.338
Radial Grid Type                 RadialGrid  ... OptM3 with GC (2021)
Angular Grid (max. ang.)         AngularGrid ... 3 (Lebedev-194)
Angular grid pruning method      GridPruning ... 4 (adaptive)
Weight generation scheme         WeightScheme... mBecke (2022)
Basis function cutoff            BFCut       ... 1.0000e-11
Integration weight cutoff        WCut        ... 1.0000e-14
Partially contracted basis set               ... on
Rotationally invariant grid construction     ... off
Angular grids for H and He will be reduced by one unit
Core-polarized basis detected: some atoms will have their core
                               angular grid increased.

Total number of grid points                  ...    21206
Total number of batches                      ...      169
Average number of points per batch           ...      125
Average number of grid points per atom       ...     4241
UseSFitting                                  ... on
Initializing property integral containers    ... done (  0.0 sec)

SHARK setup successfully completed in   0.6 seconds

Maximum memory used throughout the entire STARTUP-calculation: 16.6 MB
------------------------------------------------------------------------------
                          ORCA RELATIVISTIC HAMILTONIAN
------------------------------------------------------------------------------

Relativistic Method            ... DKH
Order of DKH treatment         ...   2
Treatment of potential         ... V(e,N)
Eps parameter for DKH          ...   0.00000000010000
Nucleus model                  ... Point Nucleus
Speed of light used            ... 137.03598950000000


            ************************************************
            *        DOUGLAS-KROLL-HESS HAMILTONIAN        *
            *   Programmed by FN according to literature   *
            *        procedures. Special thanks to         *
            *       B.A. Hess, M. Reiher and A. Wolf       *
            *     University Erlangen-Nuernberg/Bonn       *
            ************************************************

Uncontracting the basis (first version)        ... done
Number of contracted basis functions           ...   83
Number of uncontracted basis functions         ...  165
Initializing the DKH file                      ... done
One center approximation for DKH is active
Finding unique atoms                      ... 5 atom types
 ATOMIC NUMBER   6
          ... doing integrals
          ... Computing the DKH transformation
          ... Transforming V and pVp to p**2 space
          ... First transformation of V and pVp
          ... Second transformation of Veff
          ... Adding kinetic energy
          ... Back transformation of Veff to r-space
          ... Recontracting the H-matrix
          ... Computing the DKH correction to the H-matrix
          ... adding submatrics to 1 actual atoms
 ATOMIC NUMBER   1
          ... doing integrals
          ... Computing the DKH transformation
          ... Transforming V and pVp to p**2 space
          ... First transformation of V and pVp
          ... Second transformation of Veff
          ... Adding kinetic energy
          ... Back transformation of Veff to r-space
          ... Recontracting the H-matrix
          ... Computing the DKH correction to the H-matrix
          ... adding submatrics to 1 actual atoms
 ATOMIC NUMBER   9
          ... doing integrals
          ... Computing the DKH transformation
          ... Transforming V and pVp to p**2 space
          ... First transformation of V and pVp
          ... Second transformation of Veff
          ... Adding kinetic energy
          ... Back transformation of Veff to r-space
          ... Recontracting the H-matrix
          ... Computing the DKH correction to the H-matrix
          ... adding submatrics to 1 actual atoms
 ATOMIC NUMBER  17
          ... doing integrals
          ... Computing the DKH transformation
          ... Transforming V and pVp to p**2 space
          ... First transformation of V and pVp
          ... Second transformation of Veff
          ... Adding kinetic energy
          ... Back transformation of Veff to r-space
          ... Recontracting the H-matrix
          ... Computing the DKH correction to the H-matrix
          ... adding submatrics to 1 actual atoms
 ATOMIC NUMBER  35
          ... doing integrals
          ... Computing the DKH transformation
          ... Transforming V and pVp to p**2 space
          ... First transformation of V and pVp
          ... Second transformation of Veff
          ... Adding kinetic energy
          ... Back transformation of Veff to r-space
          ... Recontracting the H-matrix
          ... Computing the DKH correction to the H-matrix
          ... adding submatrics to 1 actual atoms
Storing DKH matrices                           ... done
Getting S**(-1/2)                              ... done
Reading the original H-matrix                  ... done
Adding DKH correction to the H-matrix          ... done
Storing the new modified H-matrix              ... done

Maximum memory used throughout the entire REL-calculation: 16.7 MB
-------------------------------------------------------------------------------
                                 ORCA GUESS
                   Start orbitals & Density for SCF / CASSCF
-------------------------------------------------------------------------------

------------
SCF SETTINGS
------------
Hamiltonian:
 Density Functional     Method          .... DFT(GTOs)
 Exchange Functional    Exchange        .... PBE
   PBE kappa parameter   XKappa         ....  0.804000
   PBE mue parameter    XMuePBE         ....  0.219520
 Correlation Functional Correlation     .... PBE
   PBE beta parameter  CBetaPBE         ....  0.066725
 LDA part of GGA corr.  LDAOpt          .... PW91-LDA
 Gradients option       PostSCFGGA      .... off
 Hybrid DFT is turned on
   Fraction HF Exchange ScalHFX         ....  0.250000
   Scaling of DF-GGA-X  ScalDFX         ....  0.750000
   Scaling of DF-GGA-C  ScalDFC         ....  1.000000
   Scaling of DF-LDA-C  ScalLDAC        ....  1.000000
   Perturbative correction              ....  0.000000
   NL short-range parameter             ....  6.900000
 RI-approximation to the Coulomb term is turned on
   Number of AuxJ basis functions       .... 322
   RIJ-COSX (HFX calculated with COS-X)).... on

Relativistic Settings:
 Scalar relativistic method             .... Douglas-Kroll-Hess
 Order of DKH procedure    Order        ....    2
 Mode of DKH-treatment                  .... V=V(e,N)
 Speed of light used       Velit        ....       137.035989
 Cutoff-constant           Eps          ....            1e-10 


General Settings:
 Integral files         IntName         .... chfclbr
 Hartree-Fock type      HFTyp           .... RHF
 Total Charge           Charge          ....    0
 Multiplicity           Mult            ....    1
 Number of Electrons    NEL             ....   68
 Basis Dimension        Dim             ....   83
 Nuclear Repulsion      ENuc            ....    503.6363409807 Eh

Convergence Acceleration:
 AO-DIIS                CNVDIIS         .... on
   Start iteration      DIISMaxIt       ....    12
   Startup error        DIISStart       ....  0.200000
   # of expansion vecs  DIISMaxEq       ....     5
   Bias factor          DIISBfac        ....   1.050
   Max. coefficient     DIISMaxC        ....  10.000
 MO-DIIS                CNVKDIIS        .... off
 Trust-Rad. Augm. Hess. CNVTRAH         .... auto
   Auto Start mean grad. ratio tolernc. ....  1.125000
   Auto Start start iteration           ....    50
   Auto Start num. interpolation iter.  ....    10
   Max. Number of Micro iterations      ....    24
   Max. Number of Macro iterations      .... Maxiter - #DIIS iter
   Number of Davidson start vectors     ....     2
   Converg. threshold    (grad. norm)   ....   1.000e-05
   Grad. Scal. Fac. for Micro threshold ....   0.100
   Minimum threshold for Micro iter.    ....   1.000e-02
   NR start threshold (gradient norm)   ....   1.000e-04
   Initial trust radius                 ....   0.400
   Minimum AH scaling param. (alpha)    ....   1.000
   Maximum AH scaling param. (alpha)    .... 1000.000
   Quad. conv. algorithm                .... NR
   White noise on init. David. guess    .... on
   Maximum white noise                  ....   0.010
   Pseudo random numbers                .... off
   Inactive MOs                         .... canonical
   Orbital update algorithm             .... Taylor
   Preconditioner                       .... Diag
   Full preconditioner red. dimension   ....   250
 SOSCF                  CNVSOSCF        .... on
   Start iteration      SOSCFMaxIt      ....   150
   Startup grad/error   SOSCFStart      ....  0.003300
   Hessian update       SOSCFHessUp     .... L-BFGS
 Level Shifting         CNVShift        .... on
   Level shift para.    LevelShift      ....    0.2500
   Turn off err/grad.   ShiftErr        ....    0.0010
 Zerner damping         CNVZerner       .... off
 Static damping         CNVDamp         .... on
   Fraction old density DampFac         ....    0.7000
   Max. Damping (<1)    DampMax         ....    0.9800
   Min. Damping (>=0)   DampMin         ....    0.0000
   Turn off err/grad.   DampErr         ....    0.1000

SCF Procedure:
 Maximum # iterations   MaxIter         ....   100
 SCF integral mode      SCFMode         .... Direct
   Integral package                     .... SHARK and LIBINT hybrid scheme
 Reset frequency        DirectResetFreq ....    20
 Integral Threshold     Thresh          ....  2.500e-11 Eh
 Primitive CutOff       TCut            ....  2.500e-12 Eh

Convergence Tolerance:
 Convergence Check Mode ConvCheckMode   .... Total+1el-Energy
 Convergence forced     ConvForced      .... 0
 Energy Change          TolE            ....  1.000e-08 Eh
 1-El. energy change                    ....  1.000e-05 Eh
 Orbital Gradient       TolG            ....  1.000e-05
 Orbital Rotation angle TolX            ....  1.000e-05
 DIIS Error             TolErr          ....  5.000e-07

------------------------------
INITIAL GUESS: MODEL POTENTIAL
------------------------------
Loading DKH relativistic densities                 ... done
Calculating cut-offs                               ... done
Initializing the effective Hamiltonian             ... done
Setting up the integral package (SHARK)            ... done
Starting the Coulomb interaction                   ... done (   0.0 sec)
Making the grid                                    ... done (   0.1 sec)
Mapping shells                                     ... done
Starting the XC term evaluation                    ... done (   0.1 sec)
  promolecular density results
     # of electrons  =     67.998559587
     EX              =   -134.892320509
     EC              =     -3.036476832
     EX+EC           =   -137.928797341
Transforming the Hamiltonian                       ... done (   0.0 sec)
Diagonalizing the Hamiltonian                      ... done (   0.0 sec)
Back transforming the eigenvectors                 ... done (   0.0 sec)
Now organizing SCF variables                       ... done
                      ------------------
                      INITIAL GUESS DONE (   0.2 sec)
                      ------------------
             **** ENERGY FILE WAS UPDATED (chfclbr.en.tmp) ****
Finished Guess after   0.3 sec
Maximum memory used throughout the entire GUESS-calculation: 10.1 MB

-------------------------------------------------------------------------------------------
                                      ORCA LEAN-SCF
                              memory conserving SCF solver
-------------------------------------------------------------------------------------------

----------------------------------------D-I-I-S--------------------------------------------
Iteration    Energy (Eh)           Delta-E    RMSDP     MaxDP     DIISErr   Damp  Time(sec)
-------------------------------------------------------------------------------------------
               ***  Starting incremental Fock matrix formation  ***
    1    -3194.0373332682743239     0.00e+00  9.39e-03  1.88e-01  1.52e-01  0.700   1.3
    2    -3194.1236720400415834    -8.63e-02  5.88e-03  1.10e-01  7.89e-02  0.700   1.0
                               ***Turning on AO-DIIS***
    3    -3194.1569885309709207    -3.33e-02  2.38e-03  3.51e-02  4.33e-02  0.700   1.0
    4    -3194.1773476948151256    -2.04e-02  6.12e-03  1.41e-01  2.51e-02  0.000   0.9
    5    -3194.2228921334831284    -4.55e-02  6.40e-04  7.81e-03  6.45e-03  0.000   1.0
                              *** Initializing SOSCF ***
---------------------------------------S-O-S-C-F--------------------------------------
Iteration    Energy (Eh)           Delta-E    RMSDP     MaxDP     MaxGrad    Time(sec)
--------------------------------------------------------------------------------------
    6    -3194.2229709387361254    -7.88e-05  2.14e-04  5.33e-03  1.48e-03     0.9
               *** Restarting incremental Fock matrix formation ***
    7    -3194.2228943350551162     7.66e-05  1.72e-04  4.63e-03  2.06e-04     1.3
    8    -3194.2228954571091890    -1.12e-06  8.72e-05  1.62e-03  1.61e-04     1.1
    9    -3194.2228954633119429    -6.20e-09  4.49e-05  6.75e-04  1.33e-04     1.1
                 **** Energy Check signals convergence ****

               *****************************************************
               *                     SUCCESS                       *
               *           SCF CONVERGED AFTER   9 CYCLES          *
               *****************************************************

Recomputing exchange energy using gridx3       ... done (    1.707 sec)
Old exchange energy                            :    -33.521206077 Eh
New exchange energy                            :    -33.521349765 Eh
Exchange energy change after final integration :     -0.000143687 Eh
Total energy after final integration           :  -3194.223039151 Eh
             **** ENERGY FILE WAS UPDATED (chfclbr.en.tmp) ****

----------------
TOTAL SCF ENERGY
----------------

Total Energy       :      -3194.22303915059183 Eh          -86919.22778 eV

Components:
Nuclear Repulsion  :        503.63634098069230 Eh           13704.64157 eV
Electronic Energy  :      -3697.85923644400464 Eh         -100623.86544 eV
One Electron Energy:      -5429.82489111374070 Eh         -147753.04691 eV
Two Electron Energy:       1731.96565466973630 Eh           47129.18146 eV

Virial components:
Potential Energy   :      -6376.29610102406423 Eh         -173507.83788 eV
Kinetic Energy     :       3182.07306187347240 Eh           86588.61009 eV
Virial Ratio       :          2.00381825842489

DFT components:
N(Alpha)           :       34.000002058951 electrons
N(Beta)            :       34.000002058951 electrons
N(Total)           :       68.000004117903 electrons
E(X)               :     -100.178602798671 Eh       
E(C)               :       -3.036915117476 Eh       
E(XC)              :     -103.215517916148 Eh       

---------------
SCF CONVERGENCE
---------------

  Last Energy change         ...    6.2028e-09  Tolerance :   1.0000e-08
  Last MAX-Density change    ...    6.7496e-04  Tolerance :   1.0000e-07
  Last RMS-Density change    ...    4.4922e-05  Tolerance :   5.0000e-09
  Last DIIS Error            ...    1.4778e-03  Tolerance :   5.0000e-07
  Last Orbital Gradient      ...    1.3305e-04  Tolerance :   1.0000e-05
  Last Orbital Rotation      ...    1.4370e-04  Tolerance :   1.0000e-05


----------------
ORBITAL ENERGIES
----------------

  NO   OCC          E(Eh)            E(eV) 
   0   2.0000    -489.236867    -13312.8120 
   1   2.0000    -102.083221     -2777.8257 
   2   2.0000     -64.444916     -1753.6353 
   3   2.0000     -57.244723     -1557.7081 
   4   2.0000     -57.244321     -1557.6972 
   5   2.0000     -57.243102     -1557.6640 
   6   2.0000     -24.873706      -676.8480 
   7   2.0000     -10.486603      -285.3550 
   8   2.0000      -9.684573      -263.5306 
   9   2.0000      -9.131565      -248.4825 
  10   2.0000      -7.368331      -200.5025 
  11   2.0000      -7.347055      -199.9235 
  12   2.0000      -7.345537      -199.8822 
  13   2.0000      -6.812224      -185.3700 
  14   2.0000      -6.773283      -184.3104 
  15   2.0000      -6.772054      -184.2770 
  16   2.0000      -2.773583       -75.4730 
  17   2.0000      -2.747793       -74.7713 
  18   2.0000      -2.745849       -74.7183 
  19   2.0000      -2.716237       -73.9126 
  20   2.0000      -2.716176       -73.9109 
  21   2.0000      -1.569779       -42.7159 
  22   2.0000      -1.306731       -35.5580 
  23   2.0000      -1.061945       -28.8970 
  24   2.0000      -0.810597       -22.0575 
  25   2.0000      -0.770298       -20.9609 
  26   2.0000      -0.638014       -17.3612 
  27   2.0000      -0.601179       -16.3589 
  28   2.0000      -0.541445       -14.7335 
  29   2.0000      -0.483963       -13.1693 
  30   2.0000      -0.421339       -11.4652 
  31   2.0000      -0.307334        -8.3630 
  32   2.0000      -0.234096        -6.3701 
  33   2.0000      -0.220565        -6.0019 
  34   0.0000      -0.079311        -2.1582 
  35   0.0000       0.149316         4.0631 
  36   0.0000       0.208485         5.6732 
  37   0.0000       0.259737         7.0678 
  38   0.0000       0.297171         8.0864 
  39   0.0000       0.328939         8.9509 
  40   0.0000       0.351386         9.5617 
  41   0.0000       0.356567         9.7027 
  42   0.0000       0.399300        10.8655 
  43   0.0000       0.433262        11.7897 
  44   0.0000       0.531563        14.4646 
*Only the first 10 virtual orbitals were printed.

                    ********************************
                    * MULLIKEN POPULATION ANALYSIS *
                    ********************************

-----------------------
MULLIKEN ATOMIC CHARGES
-----------------------
   0 C :   -0.196739
   1 H :   -0.194634
   2 F :    0.118305
   3 Cl:    0.545343
   4 Br:   -0.272273
Sum of atomic charges:   -0.0000000

--------------------------------
MULLIKEN REDUCED ORBITAL CHARGES
--------------------------------
  0 C s       :     2.748932  s :     2.748932
      pz      :     1.126504  p :     3.080141
      px      :     1.074426
      py      :     0.879212
      dz2     :     0.079625  d :     0.367666
      dxz     :     0.059631
      dyz     :     0.072068
      dx2y2   :     0.081686
      dxy     :     0.074656

  1 H s       :     1.191414  s :     1.191414
      pz      :     0.000973  p :     0.003220
      px      :     0.001192
      py      :     0.001055

  2 F s       :     3.780050  s :     3.780050
      pz      :     1.696419  p :     5.078651
      px      :     1.704267
      py      :     1.677966
      dz2     :     0.003482  d :     0.022994
      dxz     :     0.004431
      dyz     :     0.005593
      dx2y2   :     0.003893
      dxy     :     0.005596

  3 Cls       :     5.554730  s :     5.554730
      pz      :     3.543773  p :    10.681646
      px      :     3.540181
      py      :     3.597692
      dz2     :     0.038059  d :     0.218281
      dxz     :     0.050938
      dyz     :     0.040914
      dx2y2   :     0.044698
      dxy     :     0.043672

  4 Brs       :     8.733833  s :     8.733833
      pz      :     5.433935  p :    16.409150
      px      :     5.434911
      py      :     5.540305
      dz2     :     2.026070  d :    10.129290
      dxz     :     2.034211
      dyz     :     2.028711
      dx2y2   :     2.013495
      dxy     :     2.026803



                     *******************************
                     * LOEWDIN POPULATION ANALYSIS *
                     *******************************

----------------------
LOEWDIN ATOMIC CHARGES
----------------------
   0 C :   -1.330351
   1 H :   -0.260326
   2 F :    0.205781
   3 Cl:    0.739526
   4 Br:    0.645370

-------------------------------
LOEWDIN REDUCED ORBITAL CHARGES
-------------------------------
  0 C s       :     2.783602  s :     2.783602
      pz      :     1.288994  p :     3.693171
      px      :     1.265153
      py      :     1.139024
      dz2     :     0.166526  d :     0.853578
      dxz     :     0.166539
      dyz     :     0.181162
      dx2y2   :     0.160914
      dxy     :     0.178437

  1 H s       :     1.253271  s :     1.253271
      pz      :     0.002567  p :     0.007056
      px      :     0.002370
      py      :     0.002119

  2 F s       :     3.571270  s :     3.571270
      pz      :     1.734002  p :     5.175691
      px      :     1.739113
      py      :     1.702576
      dz2     :     0.007408  d :     0.047258
      dxz     :     0.007543
      dyz     :     0.013058
      dx2y2   :     0.007438
      dxy     :     0.011811

  3 Cls       :     5.326634  s :     5.326634
      pz      :     3.514652  p :    10.571647
      px      :     3.467396
      py      :     3.589599
      dz2     :     0.061144  d :     0.362193
      dxz     :     0.097279
      dyz     :     0.060498
      dx2y2   :     0.073685
      dxy     :     0.069587

  4 Brs       :     7.381303  s :     7.381303
      pz      :     5.431184  p :    16.488197
      px      :     5.490373
      py      :     5.566641
      dz2     :     2.082764  d :    10.485129
      dxz     :     2.142207
      dyz     :     2.102208
      dx2y2   :     2.081798
      dxy     :     2.076152



                      *****************************
                      * MAYER POPULATION ANALYSIS *
                      *****************************

  NA   - Mulliken gross atomic population
  ZA   - Total nuclear charge
  QA   - Mulliken gross atomic charge
  VA   - Mayer's total valence
  BVA  - Mayer's bonded valence
  FA   - Mayer's free valence

  ATOM       NA         ZA         QA         VA         BVA        FA
  0 C      6.1967     6.0000    -0.1967     3.3135     3.3135    -0.0000
  1 H      1.1946     1.0000    -0.1946     0.9498     0.9498     0.0000
  2 F      8.8817     9.0000     0.1183     1.2758     1.2758    -0.0000
  3 Cl    16.4547    17.0000     0.5453     1.9077     1.9077    -0.0000
  4 Br    35.2723    35.0000    -0.2723     0.2423     0.2423     0.0000

  Mayer bond orders larger than 0.100000
B(  0-C ,  1-H ) :   0.7348 B(  0-C ,  2-F ) :   1.2698 B(  0-C ,  3-Cl) :   1.5497 
B(  0-C ,  4-Br) :  -0.2407 B(  1-H ,  4-Br) :   0.1417 B(  3-Cl,  4-Br) :   0.3256 


-------
TIMINGS
-------

Total SCF time: 0 days 0 hours 0 min 11 sec 

Total time                  ....      11.445 sec
Sum of individual times     ....      11.412 sec  ( 99.7%)

SCF preparation             ....       0.075 sec  (  0.7%)
Fock matrix formation       ....      11.299 sec  ( 98.7%)
  Startup                   ....       0.001 sec  (  0.0% of F)
  Split-RI-J                ....       0.521 sec  (  4.6% of F)
  Chain of spheres X        ....       9.252 sec  ( 81.9% of F)
  XC integration            ....       1.515 sec  ( 13.4% of F)
    XC Preparation          ....       0.000 sec  (  0.0% of XC)
    Basis function eval.    ....       0.558 sec  ( 36.8% of XC)
    Density eval.           ....       0.314 sec  ( 20.7% of XC)
    XC-Functional eval.     ....       0.164 sec  ( 10.8% of XC)
    XC-Potential eval.      ....       0.404 sec  ( 26.7% of XC)
Diagonalization             ....       0.000 sec  (  0.0%)
Density matrix formation    ....       0.004 sec  (  0.0%)
Total Energy calculation    ....       0.001 sec  (  0.0%)
Population analysis         ....       0.003 sec  (  0.0%)
Orbital Transformation      ....       0.011 sec  (  0.1%)
Orbital Orthonormalization  ....       0.000 sec  (  0.0%)
DIIS solution               ....       0.016 sec  (  0.1%)
SOSCF solution              ....       0.004 sec  (  0.0%)
Finished LeanSCF after  11.4 sec

Maximum memory used throughout the entire LEANSCF-calculation: 9.6 MB

-------------------------   --------------------
FINAL SINGLE POINT ENERGY     -3194.223039150592
-------------------------   --------------------

------------------------------------------------------------------------------
                         ORCA SCF GRADIENT CALCULATION
------------------------------------------------------------------------------

Nuc. rep. gradient        (SHARK) ... done (  0.0 sec)
HCore & Overlap gradient  (SHARK) ... done (  0.0 sec)
Split-RIJ-J gradient      (SHARK) ... done (  0.4 sec)
COSX-gradient                     ... done (  7.9 sec)
XC gradient                       ... done (  1.1 sec)

------------------
CARTESIAN GRADIENT
------------------

   1   C   :   -0.643914520   -2.219103095    0.340531154
   2   H   :    0.020997943    0.012128296    0.026347764
   3   F   :    0.332070343   -0.566395121    0.382071022
   4   Cl  :   -1.562100464    1.116699785    1.362828140
   5   Br  :    1.852946697    1.656670135   -2.111778079

Difference to translation invariance:
           :    0.0000000001    0.0000000003   -0.0000000002

Difference to rotation invariance:
           :   -0.0001527927    0.0002148899    0.0002960168

Norm of the Cartesian gradient     ...    4.7133206353
RMS gradient                       ...    1.2169741551
MAX gradient                       ...    2.2191030950

-------
TIMINGS
-------

Total SCF gradient time     ....        9.460 sec

Densities                   ....       0.000 sec  (  0.0%)
One electron gradient       ....       0.032 sec  (  0.3%)
RI-J Coulomb gradient       ....       0.439 sec  (  4.6%)
COSX gradient               ....       7.878 sec  ( 83.3%)
XC gradient                 ....       1.111 sec  ( 11.7%)

Maximum memory used throughout the entire SCFGRAD-calculation: 11.6 MB
------------------------------------------------------------------------------
                         ORCA GEOMETRY RELAXATION STEP
------------------------------------------------------------------------------

Reading the OPT-File                    .... done
Getting information on internals        .... done
Copying old internal coords+grads       .... done
Making the new internal coordinates     .... (2022 redundants) done
Validating the new internal coordinates .... (2022 redundants) done
Calculating the B-matrix                .... done
Calculating the G,G- and P matrices     .... done
Transforming gradient to internals      .... done
Projecting the internal gradient        .... done
Number of atoms                         ....   5
Number of internal coordinates          .... 100
Current Energy                          .... -3194.223039151 Eh
Current gradient norm                   ....     4.713320635 Eh/bohr
Maximum allowed component of the step   ....  0.300
Current trust radius                    ....  0.300
Evaluating the initial hessian          ....  (Almloef) done
Projecting the Hessian                  .... done
Forming the augmented Hessian           .... done
Diagonalizing the augmented Hessian     .... done
Last element of RFO vector              ....  0.834803559
Lowest eigenvalues of augmented Hessian:
 -1.347378724  0.013808609  0.206597782  0.265570389  0.277541472
Length of the computed step             ....  0.659493984
Warning: the length of the step is outside the trust region - taking restricted step instead
The input lambda is                     ....     0.012787
   iter:   5  x=    0.000679  g=  447.591532 f(x)=     3.057414
   iter:  10  x=   -3.735115  g=    0.112144 f(x)=     0.144574
   iter:  15  x=   -5.041770  g=    0.026246 f(x)=     0.000000
The output lambda is                    ....    -5.041770 (16 iterations)
The final length of the internal step   ....  0.300000000
Converting the step to Cartesian space:
 Initial RMS(Int)=    0.0300000000
Transforming coordinates:
 Iter   0:  RMS(Cart)=    0.0363367571 RMS(Int)=    0.0299694993
done
Storing new coordinates                 .... done

                                .--------------------.
          ----------------------|Geometry convergence|-------------------------
          Item                value                   Tolerance       Converged
          ---------------------------------------------------------------------
          RMS gradient        0.2072126755            0.0001000000      NO
          MAX gradient        1.1798171009            0.0003000000      NO
          RMS step            0.0300000000            0.0020000000      NO
          MAX step            0.1699155451            0.0040000000      NO
          ........................................................
          Max(Bonds)      0.0899      Max(Angles)    1.84
          Max(Dihed)        1.36      Max(Improp)    0.00
          ---------------------------------------------------------------------

The optimization has not yet converged - more geometry cycles are needed


    ---------------------------------------------------------------------------
                         Redundant Internal Coordinates
                            (Angstroem and degrees)

        Definition                    Value    dE/dq     Step     New-Value
    ----------------------------------------------------------------------------
     1. B(H   1,C   0)                1.9258  0.232115 -0.0184    1.9075   
     2. B(F   2,C   0)                1.0959 -0.062754  0.0089    1.1048   
     3. B(F   2,H   1)                2.4988  0.093659 -0.0059    2.4929   
     4. B(Cl  3,F   2)                1.8009 -0.547395  0.0474    1.8483   
     5. B(Cl  3,C   0)                1.0959 -0.586183  0.0477    1.1436   
     6. B(Cl  3,H   1)                2.4988 -0.189523  0.0158    2.5146   
     7. B(Br  4,Cl  3)                1.8009 -1.179817  0.0899    1.8909   
     8. B(Br  4,H   1)                2.4988 -0.357877  0.0255    2.5243   
     9. B(Br  4,F   2)                1.8009 -0.771291  0.0603    1.8612   
    10. B(Br  4,C   0)                1.0959 -0.888795  0.0649    1.1609   
    11. A(Cl  3,C   0,Br  4)          110.50  0.027177   -0.24    110.26   
    12. A(H   1,C   0,Cl  3)          108.42 -0.000475    0.00    108.42   
    13. A(F   2,C   0,Br  4)          110.50  0.008928   -0.03    110.47   
    14. A(F   2,C   0,Cl  3)          110.50 -0.012032    0.09    110.59   
    15. A(H   1,C   0,F   2)          108.42 -0.049261    0.34    108.77   
    16. A(H   1,C   0,Br  4)          108.42  0.024668   -0.15    108.27   
    17. A(Cl  3,H   1,Br  4)           42.24 -0.223065    1.84     44.09   
    18. A(F   2,H   1,Cl  3)           42.24 -0.116430    1.08     43.32   
    19. A(C   0,H   1,Br  4)           24.59 -0.165464    1.31     25.90   
    20. A(C   0,H   1,Cl  3)           24.59 -0.111082    0.97     25.56   
    21. A(C   0,H   1,F   2)           24.59 -0.015433    0.22     24.81   
    22. A(F   2,H   1,Br  4)           42.24 -0.153487    1.31     43.55   
    23. A(Cl  3,F   2,Br  4)           60.00 -0.176592    1.33     61.33   
    24. A(C   0,F   2,Br  4)           34.75 -0.142816    1.03     35.78   
    25. A(H   1,F   2,Br  4)           68.88 -0.047019    0.28     69.15   
    26. A(C   0,F   2,Cl  3)           34.75 -0.081652    0.66     35.41   
    27. A(H   1,F   2,Cl  3)           68.88 -0.019403    0.10     68.98   
    28. A(C   0,F   2,H   1)           46.99  0.064694   -0.56     46.42   
    29. A(C   0,Cl  3,F   2)           34.75  0.093684   -0.75     34.00   
    30. A(H   1,Cl  3,Br  4)           68.88  0.065388   -0.64     68.24   
    31. A(H   1,Cl  3,F   2)           68.88  0.135833   -1.18     67.70   
    32. A(C   0,Cl  3,H   1)           46.99  0.111557   -0.97     46.01   
    33. A(F   2,Cl  3,Br  4)           60.00  0.031322   -0.31     59.69   
    34. A(C   0,Cl  3,Br  4)           34.75 -0.064273    0.43     35.18   
    35. A(H   1,Br  4,Cl  3)           68.88  0.157677   -1.21     67.67   
    36. A(H   1,Br  4,F   2)           68.88  0.200506   -1.58     67.29   
    37. A(C   0,Br  4,H   1)           46.99  0.140796   -1.16     45.83   
    38. A(F   2,Br  4,Cl  3)           60.00  0.145270   -1.02     58.98   
    39. A(C   0,Br  4,Cl  3)           34.75  0.037095   -0.19     34.56   
    40. A(C   0,Br  4,F   2)           34.75  0.133888   -1.00     33.75   
    41. D(Cl  3,H   1,C   0,F   2)   -120.00  0.043153   -0.30   -120.30   
    42. D(Br  4,H   1,C   0,Cl  3)   -120.00 -0.046615    0.38   -119.62   
    43. D(F   2,H   1,C   0,Br  4)   -120.00  0.003462   -0.07   -120.07   
    44. D(Cl  3,H   1,C   0,Br  4)    120.00  0.046615   -0.38    119.62   
    45. D(Br  4,H   1,C   0,F   2)    120.00 -0.003462    0.07    120.07   
    46. D(F   2,H   1,C   0,Cl  3)    120.00 -0.043153    0.30    120.30   
    47. D(Br  4,F   2,C   0,H   1)   -118.70 -0.005263   -0.01   -118.70   
    48. D(C   0,F   2,H   1,Cl  3)     32.41 -0.056907    0.49     32.90   
    49. D(H   1,F   2,C   0,Cl  3)   -118.70  0.037587   -0.26   -118.96   
    50. D(Cl  3,F   2,C   0,Br  4)   -122.61 -0.032324    0.26   -122.34   
    51. D(Br  4,F   2,H   1,C   0)     32.41 -0.121004    0.88     33.29   
    52. D(Cl  3,F   2,H   1,Br  4)    -64.83  0.177911   -1.36    -66.19   
    53. D(Cl  3,F   2,H   1,C   0)    -32.41  0.056907   -0.49    -32.90   
    54. D(C   0,F   2,H   1,Br  4)    -32.41  0.121004   -0.88    -33.29   
    55. D(Cl  3,F   2,C   0,H   1)    118.70 -0.037587    0.26    118.96   
    56. D(Br  4,F   2,H   1,Cl  3)     64.83 -0.177911    1.36     66.19   
    57. D(Br  4,F   2,C   0,Cl  3)    122.61  0.032324   -0.26    122.34   
    58. D(H   1,F   2,C   0,Br  4)    118.70  0.005263    0.01    118.70   
    59. D(Br  4,Cl  3,H   1,F   2)    -64.83  0.014911   -0.11    -64.93   
    60. D(F   2,Cl  3,H   1,Br  4)     64.83 -0.014911    0.11     64.93   
    61. D(H   1,Cl  3,C   0,F   2)    118.70 -0.067275    0.47    119.16   
    62. D(H   1,Cl  3,C   0,Br  4)   -118.70 -0.045616    0.33   -118.37   
    63. D(Br  4,Cl  3,H   1,C   0)    -32.41  0.090716   -0.67    -33.08   
    64. D(C   0,Cl  3,H   1,Br  4)     32.41 -0.090716    0.67     33.08   
    65. D(Br  4,Cl  3,C   0,H   1)    118.70  0.045616   -0.33    118.37   
    66. D(F   2,Cl  3,H   1,C   0)     32.41  0.075805   -0.56     31.86   
    67. D(Br  4,Cl  3,C   0,F   2)   -122.61 -0.021659    0.14   -122.47   
    68. D(F   2,Cl  3,C   0,H   1)   -118.70  0.067275   -0.47   -119.16   
    69. D(C   0,Cl  3,H   1,F   2)    -32.41 -0.075805    0.56    -31.86   
    70. D(C   0,Cl  3,F   2,Br  4)    -33.67  0.083001   -0.59    -34.27   
    71. D(F   2,Cl  3,C   0,Br  4)    122.61  0.021659   -0.14    122.47   
    72. D(H   1,Cl  3,F   2,Br  4)    -77.11 -0.000736    0.08    -77.04   
    73. D(H   1,Cl  3,F   2,C   0)    -43.44 -0.083737    0.67    -42.77   
    74. D(Br  4,Cl  3,F   2,H   1)     77.11  0.000736   -0.08     77.04   
    75. D(Br  4,Cl  3,F   2,C   0)     33.67 -0.083001    0.59     34.27   
    76. D(C   0,Cl  3,F   2,H   1)     43.44  0.083737   -0.67     42.77   
    77. D(H   1,Br  4,Cl  3,F   2)    -77.11 -0.119677    1.00    -76.11   
    78. D(F   2,Br  4,Cl  3,H   1)     77.11  0.119677   -1.00     76.11   
    79. D(F   2,Br  4,Cl  3,C   0)     33.67  0.068688   -0.54     33.13   
    80. D(C   0,Br  4,Cl  3,H   1)     43.44  0.050989   -0.46     42.98   
    81. D(H   1,Br  4,F   2,Cl  3)     77.11  0.047364   -0.36     76.75   
    82. D(H   1,Br  4,F   2,C   0)     43.44  0.071628   -0.60     42.84   
    83. D(Cl  3,Br  4,F   2,H   1)    -77.11 -0.047364    0.36    -76.75   
    84. D(Cl  3,Br  4,F   2,C   0)    -33.67  0.024264   -0.24    -33.91   
    85. D(C   0,Br  4,F   2,H   1)    -43.44 -0.071628    0.60    -42.84   
    86. D(C   0,Br  4,F   2,Cl  3)     33.67 -0.024264    0.24     33.91   
    87. D(Cl  3,Br  4,H   1,F   2)     64.83  0.071902   -0.44     64.39   
    88. D(Cl  3,Br  4,H   1,C   0)     32.41 -0.015261    0.20     32.61   
    89. D(F   2,Br  4,H   1,Cl  3)    -64.83 -0.071902    0.44    -64.39   
    90. D(F   2,Br  4,H   1,C   0)    -32.41 -0.087163    0.63    -31.78   
    91. D(C   0,Br  4,H   1,Cl  3)    -32.41  0.015261   -0.20    -32.61   
    92. D(C   0,Br  4,H   1,F   2)     32.41  0.087163   -0.63     31.78   
    93. D(H   1,Br  4,C   0,Cl  3)    118.70  0.030315   -0.23    118.46   
    94. D(C   0,Br  4,Cl  3,F   2)    -33.67 -0.068688    0.54    -33.13   
    95. D(H   1,Br  4,C   0,F   2)   -118.70  0.039726   -0.31   -119.00   
    96. D(Cl  3,Br  4,C   0,H   1)   -118.70 -0.030315    0.23   -118.46   
    97. D(Cl  3,Br  4,C   0,F   2)    122.61  0.009410   -0.07    122.53   
    98. D(H   1,Br  4,Cl  3,C   0)    -43.44 -0.050989    0.46    -42.98   
    99. D(F   2,Br  4,C   0,H   1)    118.70 -0.039726    0.31    119.00   
   100. D(F   2,Br  4,C   0,Cl  3)   -122.61 -0.009410    0.07   -122.53   
    ----------------------------------------------------------------------------

Geometry step timings:
Preparation and reading OPT file:      0.000 s (10.058 %)
Internal coordinates            :      0.000 s ( 0.925 %)
B/P matrices and projection     :      0.001 s (13.614 %)
Hessian update/contruction      :      0.000 s (10.472 %)
Making the step                 :      0.002 s (42.353 %)
Converting the step to Cartesian:      0.000 s ( 2.362 %)
Storing new data                :      0.000 s ( 0.852 %)
Checking convergence            :      0.000 s ( 0.219 %)
Final printing                  :      0.001 s (19.045 %)
Total time                      :      0.004 s

Time for energy+gradient        :     22.664 s
Time for complete geometry iter :     22.704 s

         *************************************************************
         *                GEOMETRY OPTIMIZATION CYCLE   2            *
         *************************************************************
---------------------------------
CARTESIAN COORDINATES (ANGSTROEM)
---------------------------------
  C     -0.002156    0.009316   -0.007346
  H      1.100306    1.104538    1.098371
  F     -0.633258    0.661193   -0.637057
  Cl     0.674374   -0.644654   -0.657325
  Br    -0.662508   -0.653637    0.680114

----------------------------
CARTESIAN COORDINATES (A.U.)
----------------------------
  NO LB      ZA    FRAG     MASS         X           Y           Z
   0 C     6.0000    0    12.011   -0.004074    0.017606   -0.013881
   1 H     1.0000    0     1.008    2.079277    2.087274    2.075620
   2 F     9.0000    0    18.998   -1.196684    1.249474   -1.203864
   3 Cl   17.0000    0    35.453    1.274381   -1.218220   -1.242165
   4 Br   35.0000    0    79.900   -1.251960   -1.235194    1.285230

--------------------------------
INTERNAL COORDINATES (ANGSTROEM)
--------------------------------
 C      0   0   0     0.000000000000     0.00000000     0.00000000
 H      1   0   0     1.907233868194     0.00000000     0.00000000
 F      1   2   0     1.104431753586   108.77917493     0.00000000
 Cl     1   2   3     1.143609865789   108.41705160   120.30060598
 Br     1   2   3     1.161108629507   108.26240073   239.93071267

---------------------------
INTERNAL COORDINATES (A.U.)
---------------------------
 C      0   0   0     0.000000000000     0.00000000     0.00000000
 H      1   0   0     3.604149684226     0.00000000     0.00000000
 F      1   2   0     2.087073547883   108.77917493     0.00000000
 Cl     1   2   3     2.161109450392   108.41705160   120.30060598
 Br     1   2   3     2.194177321501   108.26240073   239.93071267

------------------------------------------------------------------------------
                   ___                                                        
                  /   \      - P O W E R E D   B Y -                         
                 /     \                                                     
                 |  |  |   _    _      __       _____    __    __             
                 |  |  |  | |  | |    /  \     |  _  \  |  |  /  |          
                  \  \/   | |  | |   /    \    | | | |  |  | /  /          
                 / \  \   | |__| |  /  /\  \   | |_| |  |  |/  /          
                |  |  |   |  __  | /  /__\  \  |    /   |      \           
                |  |  |   | |  | | |   __   |  |    \   |  |\   \          
                \     /   | |  | | |  |  |  |  | |\  \  |  | \   \       
                 \___/    |_|  |_| |__|  |__|  |_| \__\ |__|  \__/        
                                                                              
                      - O R C A' S   B I G   F R I E N D -                    
                                      &                                       
                       - I N T E G R A L  F E E D E R -                       
                                                                              
 v1 FN, 2020, v2 2021, v3 2022-2024                                           
------------------------------------------------------------------------------


----------------------
SHARK INTEGRAL PACKAGE
----------------------

Number of atoms                             ...      5
Number of basis functions                   ...     83
Number of shells                            ...     35
Maximum angular momentum                    ...      2
Integral batch strategy                     ... SHARK/LIBINT Hybrid
RI-J (if used) integral strategy            ... SPLIT-RIJ (Revised 2003 algorithm where possible)
Printlevel                                  ...      1
Contraction scheme used                     ... SEGMENTED contraction
Prescreening option                         ... SCHWARTZ
   Thresh                                   ... 2.500e-11
   Tcut                                     ... 2.500e-12
   Tpresel                                  ... 2.500e-12 
Coulomb Range Separation                    ... NOT USED
Exchange Range Separation                   ... NOT USED
Multipole approximations                    ... NOT USED
Finite Nucleus Model                        ... NOT USED
CABS basis                                  ... NOT available
Auxiliary Coulomb fitting basis             ... AVAILABLE
   # of basis functions in Aux-J            ...    322
   # of shells in Aux-J                     ...    116
   Maximum angular momentum in Aux-J        ...      4
Auxiliary J/K fitting basis                 ... NOT available
Auxiliary Correlation fitting basis         ... AVAILABLE
   # of basis functions in Aux-C            ...    299
   # of shells in Aux-C                     ...     91
   Maximum angular momentum in Aux-C        ...      4
Auxiliary 'external' fitting basis          ... NOT available

Checking pre-screening integrals            ... done (  0.0 sec) Dimension = 35
[...]
  0-1A  ->  3-3A    6.374283   51412.1   194.5   0.000000000   0.00000   0.00000   0.00000   0.00000
  0-1A  ->  2-1A    6.396759   51593.3   193.8   0.001833218   0.01170  -0.01767  -0.06073   0.08773
  0-1A  ->  3-1A    7.245329   58437.5   171.1   0.033528748   0.18889   0.28437   0.17052  -0.28097

----------------------------------------------------------------------------------------------------
                     ABSORPTION SPECTRUM VIA TRANSITION VELOCITY DIPOLE MOMENTS    
----------------------------------------------------------------------------------------------------
     Transition      Energy     Energy  Wavelength fosc(P2)      P2        PX        PY        PZ   
                      (eV)      (cm-1)    (nm)                 (au**2)    (au)      (au)      (au)  
----------------------------------------------------------------------------------------------------
  0-1A  ->  1-3A    5.437542   43856.7   228.0   0.000000000   0.00000   0.00000   0.00000   0.00000
  0-1A  ->  2-3A    5.591831   45101.2   221.7   0.000000000   0.00000   0.00000   0.00000   0.00000
  0-1A  ->  1-1A    6.296239   50782.6   196.9   0.011499682   0.00399  -0.02598   0.04123   0.04021
  0-1A  ->  3-3A    6.374283   51412.1   194.5   0.000000000   0.00000   0.00000   0.00000   0.00000
  0-1A  ->  2-1A    6.396759   51593.3   193.8   0.009378737   0.00331   0.04770   0.01299   0.02938
  0-1A  ->  3-1A    7.245329   58437.5   171.1   0.013423941   0.00536  -0.05627  -0.04539   0.01165

------------------------------------------------------------------------------------------
                     CD SPECTRUM VIA TRANSITION ELECTRIC DIPOLE MOMENTS    
------------------------------------------------------------------------------------------
     Transition      Energy     Energy  Wavelength    R        MX        MY        MZ   
                      (eV)      (cm-1)    (nm)   (1e40*cgs)   (au)      (au)      (au)  
------------------------------------------------------------------------------------------
  0-1A  ->  1-3A    5.437542   43856.7   228.0   -0.00000   0.00000   0.00000   0.00000
  0-1A  ->  2-3A    5.591831   45101.2   221.7   -0.00000   0.00000   0.00000   0.00000
  0-1A  ->  1-1A    6.296239   50782.6   196.9    0.02331   0.25197   0.01509   0.27338
  0-1A  ->  3-3A    6.374283   51412.1   194.5   -0.00000   0.00000   0.00000   0.00000
  0-1A  ->  2-1A    6.396759   51593.3   193.8   -0.65156   0.01163  -0.22334  -0.13652
  0-1A  ->  3-1A    7.245329   58437.5   171.1    4.33969   0.11951  -0.16448   0.05390

------------------------------------------------------------------------------------------
                     CD SPECTRUM VIA TRANSITION VELOCITY DIPOLE MOMENTS    
------------------------------------------------------------------------------------------
     Transition      Energy     Energy  Wavelength    R        MX        MY        MZ   
                      (eV)      (cm-1)    (nm)   (1e40*cgs)   (au)      (au)      (au)  
------------------------------------------------------------------------------------------
  0-1A  ->  1-3A    5.437542   43856.7   228.0    0.00000   0.00000   0.00000   0.00000
  0-1A  ->  2-3A    5.591831   45101.2   221.7    0.00000   0.00000   0.00000   0.00000
  0-1A  ->  1-1A    6.296239   50782.6   196.9   10.32392   0.25197   0.01509   0.27338
  0-1A  ->  3-3A    6.374283   51412.1   194.5    0.00000   0.00000   0.00000   0.00000
  0-1A  ->  2-1A    6.396759   51593.3   193.8  -12.74772   0.01163  -0.22334  -0.13652
  0-1A  ->  3-1A    7.245329   58437.5   171.1    2.42283   0.11951  -0.16448   0.05390

-------------------------------------------
SOC CORRECTED TD-DFT/TDA-EXCITATION SPECTRA
--------------------------------------------
Generating SOC_CIS transition densities           ... done 

--------------------------------------------------------------------------------------------------------
      SOC CORRECTED ABSORPTION SPECTRUM VIA TRANSITION ELECTRIC DIPOLE MOMENTS    
--------------------------------------------------------------------------------------------------------
      Transition         Energy     Energy  Wavelength fosc(D2)      D2       |DX|      |DY|      |DZ|  
                          (eV)      (cm-1)    (nm)                 (au**2)    (au)      (au)      (au)  
--------------------------------------------------------------------------------------------------------
  0-1.0A  ->  1-3.0A    5.366507   43283.8   231.0   0.000001527   0.00001   0.00190   0.00018   0.00282
  0-1.0A  ->  2-3.0A    5.367665   43293.1   231.0   0.000012590   0.00010   0.00539   0.00607   0.00546
  0-1.0A  ->  3-3.0A    5.417711   43696.8   228.8   0.000026080   0.00020   0.00290   0.00771   0.01134
  0-1.0A  ->  4-2.9A    5.567340   44903.6   222.7   0.000183084   0.00134   0.02696   0.00321   0.02459
  0-1.0A  ->  5-3.0A    5.650257   45572.4   219.4   0.000000212   0.00000   0.00066   0.00046   0.00094
  0-1.0A  ->  6-3.0A    5.664785   45689.6   218.9   0.000225486   0.00162   0.02601   0.01851   0.02461
  0-1.0A  ->  7-1.7A    6.264861   50529.5   197.9   0.004407284   0.02871   0.12670   0.00648   0.11233
  0-1.0A  ->  8-2.2A    6.322578   50995.0   196.1   0.001299805   0.00839   0.03226   0.04225   0.07460
  0-1.0A  ->  9-3.0A    6.386881   51513.7   194.1   0.000000778   0.00000   0.00164   0.00076   0.00131
  0-1.0A  -> 10-2.4A    6.428747   51851.3   192.9   0.001976405   0.01255   0.07747   0.01267   0.07991
  0-1.0A  -> 11-1.8A    6.470361   52187.0   191.6   0.000706808   0.00446   0.00300   0.04268   0.05126
  0-1.0A  -> 12-1.0A    7.246706   58448.6   171.1   0.033113479   0.18651   0.28259   0.16934   0.27924

--------------------------------------------------------------------------------------------------------
      SOC CORRECTED ABSORPTION SPECTRUM VIA TRANSITION VELOCITY DIPOLE MOMENTS    
--------------------------------------------------------------------------------------------------------
      Transition         Energy     Energy  Wavelength fosc(P2)      P2       |PX|      |PY|      |PZ|  
                          (eV)      (cm-1)    (nm)                 (au**2)    (au)      (au)      (au)  
--------------------------------------------------------------------------------------------------------
  0-1.0A  ->  1-3.0A    5.366507   43283.8   231.0   0.000000398   0.00000   0.00028   0.00019   0.00002
  0-1.0A  ->  2-3.0A    5.367665   43293.1   231.0   0.000001767   0.00000   0.00047   0.00054   0.00004
  0-1.0A  ->  3-3.0A    5.417711   43696.8   228.8   0.000155035   0.00005   0.00580   0.00121   0.00334
  0-1.0A  ->  4-2.9A    5.567340   44903.6   222.7   0.000341301   0.00010   0.00392   0.00662   0.00674
  0-1.0A  ->  5-3.0A    5.650257   45572.4   219.4   0.000000085   0.00000   0.00014   0.00007   0.00005
  0-1.0A  ->  6-3.0A    5.664785   45689.6   218.9   0.000009537   0.00000   0.00064   0.00160   0.00008
  0-1.0A  ->  7-1.7A    6.264861   50529.5   197.9   0.007926845   0.00274   0.01780   0.03458   0.03500
  0-1.0A  ->  8-2.2A    6.322578   50995.0   196.1   0.003691863   0.00129   0.03299   0.00400   0.01350
  0-1.0A  ->  9-3.0A    6.386881   51513.7   194.1   0.000000088   0.00000   0.00017   0.00004   0.00001
  0-1.0A  -> 10-2.4A    6.428747   51851.3   192.9   0.003155633   0.00112   0.01911   0.02075   0.01796
  0-1.0A  -> 11-1.8A    6.470361   52187.0   191.6   0.005598667   0.00200   0.03358   0.01333   0.02630
  0-1.0A  -> 12-1.0A    7.246706   58448.6   171.1   0.013403837   0.00535   0.05624   0.04535   0.01162

----------------------------------------------------------------------------------------------
      SOC CORRECTED CD SPECTRUM VIA TRANSITION ELECTRIC DIPOLE MOMENTS    
----------------------------------------------------------------------------------------------
      Transition         Energy     Energy  Wavelength    R       |MX|      |MY|      |MZ|  
                          (eV)      (cm-1)    (nm)    (1e40*cgs)  (au)      (au)      (au)  
----------------------------------------------------------------------------------------------
  0-1.0A  ->  1-3.0A    5.366507   43283.8   231.0   -0.00489   0.00268   0.00158   0.00177
  0-1.0A  ->  2-3.0A    5.367665   43293.1   231.0    0.00262   0.00039   0.00147   0.00022
  0-1.0A  ->  3-3.0A    5.417711   43696.8   228.8   -0.00889   0.00065   0.02787   0.01744
  0-1.0A  ->  4-2.9A    5.567340   44903.6   222.7   -0.01274   0.04053   0.00039   0.04329
  0-1.0A  ->  5-3.0A    5.650257   45572.4   219.4    0.00417   0.00708   0.00654   0.00769
  0-1.0A  ->  6-3.0A    5.664785   45689.6   218.9    0.01308   0.00037   0.00628   0.00399
  0-1.0A  ->  7-1.7A    6.264861   50529.5   197.9   -1.15779   0.20884   0.00448   0.21343
  0-1.0A  ->  8-2.2A    6.322578   50995.0   196.1    1.00408   0.02048   0.13952   0.11643
  0-1.0A  ->  9-3.0A    6.386881   51513.7   194.1   -0.00319   0.00200   0.00055   0.00234
  0-1.0A  -> 10-2.4A    6.428747   51851.3   192.9    1.10385   0.13011   0.03504   0.16100
  0-1.0A  -> 11-1.8A    6.470361   52187.0   191.6   -1.56609   0.03138   0.16911   0.07784
  0-1.0A  -> 12-1.0A    7.246706   58448.6   171.1    4.30798   0.11943   0.16426   0.05397

----------------------------------------------------------------------------------------------
      SOC CORRECTED CD SPECTRUM VIA TRANSITION VELOCITY DIPOLE MOMENTS    
----------------------------------------------------------------------------------------------
      Transition         Energy     Energy  Wavelength    R       |MX|      |MY|      |MZ|  
                          (eV)      (cm-1)    (nm)    (1e40*cgs)  (au)      (au)      (au)  
----------------------------------------------------------------------------------------------
  0-1.0A  ->  1-3.0A    5.366507   43283.8   231.0   -0.00262   0.00268   0.00158   0.00177
  0-1.0A  ->  2-3.0A    5.367665   43293.1   231.0    0.00144   0.00039   0.00147   0.00022
  0-1.0A  ->  3-3.0A    5.417711   43696.8   228.8   -0.22657   0.00065   0.02787   0.01744
  0-1.0A  ->  4-2.9A    5.567340   44903.6   222.7    0.29997   0.04053   0.00039   0.04329
  0-1.0A  ->  5-3.0A    5.650257   45572.4   219.4   -0.00410   0.00708   0.00654   0.00769
  0-1.0A  ->  6-3.0A    5.664785   45689.6   218.9    0.02401   0.00037   0.00628   0.00399
  0-1.0A  ->  7-1.7A    6.264861   50529.5   197.9    7.36729   0.20884   0.00448   0.21343
  0-1.0A  ->  8-2.2A    6.322578   50995.0   196.1   -5.69185   0.02048   0.13952   0.11643
  0-1.0A  ->  9-3.0A    6.386881   51513.7   194.1    0.00077   0.00200   0.00055   0.00234
  0-1.0A  -> 10-2.4A    6.428747   51851.3   192.9    2.25822   0.13011   0.03504   0.16100
  0-1.0A  -> 11-1.8A    6.470361   52187.0   191.6   -6.43998   0.03138   0.16911   0.07784
  0-1.0A  -> 12-1.0A    7.246706   58448.6   171.1    2.40600   0.11943   0.16426   0.05397

Total run time:        7.534 sec

           *** ORCA-CIS/TD-DFT FINISHED WITHOUT ERROR ***

---------------------------
SOC CIS/TD-DFT TOTAL ENERGY
---------------------------

    E(SCF)        =  -3196.508635270 Eh
    E(SOC CIS)    =      0.197215510 Eh (SOC Root  1)
    ----------------------------- ---------
    E(tot)        =  -3196.311419760 Eh


Maximum memory used throughout the entire CIS-calculation: 12.1 MB
=> NOW LEAVING ORCA_CIS

-------------------------   --------------------
FINAL SINGLE POINT ENERGY     -3196.311419759766
-------------------------   --------------------


------------------------------------------------------------------------------
                              ORCA PROPERTY CALCULATIONS
------------------------------------------------------------------------------

GBWName                                 ... chfclbr_job2.gbw
Number of atoms                         ...      5
Number of basis functions               ...     83
Max core memory                         ...   1024 MB

Electric properties:
Dipole moment                           ... YES
Quadrupole moment                       ...  NO
Static polarizability (Dipole/Dipole)   ...  NO
Static polarizability (Dipole/Quad.)    ...  NO
Static polarizability (Quad./Quad.)     ...  NO
Static polarizability (Velocity)        ...  NO

Atomic electric properties:
Dipole moment                           ...  NO
Quadrupole moment                       ...  NO
Static polarizability                   ...  NO

Choice of electric origin               ... Center of mass
Position of electric origin             ...    -0.595366    -0.923315     0.697464

General magnetic properties:
Magnetizability                         ...  NO

EPR properties:
g-Tensor (aka g-matrix)                 ...  NO
Zero-Field splitting spin-orbit         ...  NO
Zero-field splitting spin-spin          ...  NO
Hyperfine couplings                     ...  NO (   0 nuclei)
Quadrupole couplings                    ...  NO (   0 nuclei)
Contact density                         ...  NO (   0 nuclei)

NMR properties:
Chemical shifts                         ...  NO (   0 nuclei)
Spin-rotation constants                 ...  NO (   0 nuclei)
Spin-spin couplings                     ...  NO (   0 nuclei,    0 pairs)

Choice of magnetic origin               ... GIAO
Position of magnetic origin             ...     0.000000     0.000000     0.000000

Properties with geometric perturbations:
SCF Hessian                             ...  NO
IR spectrum                             ...  NO
VCD spectrum                            ...  NO
X-ray spectroscopy properties:
SCF XES/XAS/RIXS spectra                ...  NO


-------------
DIPOLE MOMENT
-------------

Method             : SCF
Type of density    : Electron Density
Multiplicity       :   1
Irrep              :   0
Energy             : -3196.5086352698049268 Eh
Relativity type    : 
Basis              : AO
                                X                 Y                 Z
Electronic contribution:     -5.226672367      -3.368428483       5.232019962
Nuclear contribution   :      5.526395307       3.586390503      -4.916202470
                        -----------------------------------------
Total Dipole Moment    :      0.299722940       0.217962020       0.315817493
                        -----------------------------------------
Magnitude (a.u.)       :      0.486910640
Magnitude (Debye)      :      1.237628492



--------------------
Rotational spectrum 
--------------------
 
Rotational constants in cm-1:             0.215927             0.066943             0.052751 
Rotational constants in MHz :          6473.313999          2006.887469          1581.421689 

Dipole components along the rotational axes: 
x,y,z [a.u.] :     0.000226    -0.008223    -0.486841 
x,y,z [Debye]:     0.000575    -0.020901    -1.237452 

 

Dipole moment calculation done in   0.0 sec 

Maximum memory used throughout the entire PROP-calculation: 6.0 MB

--------------------------------
SUGGESTED CITATIONS FOR THIS RUN
--------------------------------

Below you find a list of papers that are relevant to this ORCA run
We neither can nor want to force you to cite these papers, but we appreciate if you do
You receive ORCA, which is the product of decades of hard work by many enthusiastic individuals, for free
The only thing we kindly ask in return is that you cite our papers,
We deeply appreciate it, if you show your appreciation for ORCA by not just citing the generic ORCA reference.

Please note that relegating all ORCA citations to the supporting information does *not* help us.
SI sections are not indexed - citations you put there will not count into any citation statistics
But we need these citations in order to attract the funding resources that allow us to do what we are doing

Therefore, if you are a happy ORCA user, please consider citing a few of the papers listed below in the main body of your paper

In addition to the list printed below, the program has created the file chfclbr_job2.bibtex that contains the list in bibtex format
You can import this file easily into all common literature databanks and citation aid programs


List of essential papers. We consider these as the minimum necessary citations

  1. Neese,F.
     Software update: the ORCA program system, version 5.0
     WIRES Comput. Molec. Sci., 2022 12(1)e1606
     doi.org/10.1002/wcms.1606

List of papers to cite with high priority. The work reported in these papers was absolutely
necessary for this run to complete.
Our perspective: the developers of density functionals and basis sets usually get cited in chemistry papers
Good! But without the algorithms to do something with them, the functionals or basis sets would not do anything.
Hence, in our opinion, the algorithm design and method developments papers are equally worthy of getting cited

  1. Neese,F.; Olbrich,G.
     Efficient use of the resolution of the identity approximation in time-dependent density functional calculations with hybrid density functionals
     Chem. Phys. Lett., 2002 362 170-178
     doi.org/10.1016/s0009-2614(02)01053-9
  2. Neese,F.
     An improvement of the resolution of the identity approximation for the formation of the Coulomb matrix
     J. Comp. Chem., 2003 24(14)1740-1747
     doi.org/10.1002/jcc.10318
  3. Neese,F.; Wennmohs,F.; Hansen,A.; Becker,U.
     Efficient, approximate and parallel Hartree-Fock and hybrid DFT calculations. A 'chain-of-spheres' algorithm for the Hartree-Fock exchange
     Chem. Phys., 2009 356(1-3)98-109
     doi.org/10.1016/j.chemphys.2008.10.036
  4. Helmich-Paris,B.; de Souza,B.; Neese,F.; Izsák,R.
     An improved chain of spheres for exchange algorithm
     J. Chem. Phys., 2021 155 104109
     doi.org/doi: 10.1063/5.0058766.
  5. Neese,F.
     The SHARK Integral Generation and Digestion System
     J. Comp. Chem., 2022  1-16
     doi.org/10.1002/jcc.26942

List of suggested additional citations. These are papers that are important in the 'surrounding' of 
of this run, or papers that preceded the highly important papers. If you like your results we are grateful for a citation.

  1. Izsak,R.; Neese,F.
     An overlap fitted chain of spheres exchange method
     J. Chem. Phys., 2011 135 144105
     doi.org/10.1063/1.3646921
  2. Izsak,R.; Hansen,A.; Neese,F.
     The resolution of identity and chain of spheres approximations for the LPNO-CCSD singles Fock term
     Molec. Phys., 2012 110 2413-2417
     doi.org/10.1080/00268976.2012.687466
  3. Neese,F.
     The ORCA program system
     WIRES Comput. Molec. Sci., 2012 2(1)73-78
     doi.org/10.1002/wcms.81
  4. Izsak,R.; Neese,F.; Klopper,W.
     Robust fitting techniques in the chain of spheres approximation to the Fock exchange: The role of the complementary space
     J. Chem. Phys., 2013 139 
     doi.org/10.1063/1.4819264
  5. Neese,F.
     Software update: the ORCA program system, version 4.0
     WIRES Comput. Molec. Sci., 2018 8(1)1-6
     doi.org/10.1002/wcms.1327
  6. Neese,F.; Wennmohs,F.; Becker,U.; Riplinger,C.
     The ORCA quantum chemistry program package
     J. Chem. Phys., 2020 152 Art. No. L224108
     doi.org/10.1063/5.0004608

List of optional additional citations

  1. Neese,F.
     Approximate second-order SCF convergence for spin unrestricted wavefunctions
     Chem. Phys. Lett., 2000 325(1-3)93-98
     doi.org/10.1016/s0009-2614(00)00662-x

Timings for individual modules:

Sum of individual times          ...       14.547 sec (=   0.242 min)
Startup calculation              ...        0.630 sec (=   0.010 min)   4.3 %
Relativistic integrals           ...        0.709 sec (=   0.012 min)   4.9 %
SCF iterations                   ...        3.945 sec (=   0.066 min)  27.1 %
Property integrals               ...        1.624 sec (=   0.027 min)  11.2 %
Property calculations            ...        0.069 sec (=   0.001 min)   0.5 %
CIS module                       ...        7.570 sec (=   0.126 min)  52.0 %



                             ****ORCA TERMINATED NORMALLY****
TOTAL RUN TIME: 0 days 0 hours 7 minutes 19 seconds 696 msec
