[Molden Format]
[Title]
 Molden file created by orca_2mkl for BaseName=H2CO_m

[Atoms] AU
C    1   6         -0.8096412803        -2.0238191495         0.0000191172 
O    2   8          1.4568515318        -2.0238191670        -0.0000323995 
H    3   1         -1.9218719901        -0.2520828652         0.0000076364 
H    4   1         -1.9218723778        -3.7955556610         0.0000812350 
[GTO]
  1 0
s   8 1.0 
     8236.0000000000         0.3342267437
     1235.0000000000         0.6230746416
      280.8000000000         1.0531059072
       79.2700000000         1.5831631342
       25.5900000000         1.9450988312
        8.9970000000         1.6429469100
        3.3190000000         0.6196591261
        0.3643000000        -0.0030667276
s   8 1.0 
     8236.0000000000        -0.1210101098
     1235.0000000000        -0.2265691066
      280.8000000000        -0.3857532897
       79.2700000000        -0.5967016836
       25.5900000000        -0.7858351262
        8.9970000000        -0.8165330321
        3.3190000000        -0.5188700868
        0.3643000000         0.3477346660
s   1 1.0 
        0.9059000000         0.6617901318
s   1 1.0 
        0.1285000000         0.1529633682
p   3 1.0 
       18.7100000000         2.1868515589
        4.1330000000         2.0503123413
        1.2000000000         1.4599445297
p   1 1.0 
        0.3827000000         0.4290551959
p   1 1.0 
        0.1209000000         0.1016185431
d   1 1.0 
        1.0970000000         3.3522135855
d   1 1.0 
        0.3180000000         0.3838994974
f   1 1.0 
        0.7610000000         3.0840084332

  2 0
s   8 1.0 
    15330.0000000000         0.5107820689
     2299.0000000000         0.9520320559
      522.4000000000         1.6143309227
      147.3000000000         2.4433650471
       47.5500000000         3.0486061870
       16.7600000000         2.6183461361
        6.2070000000         1.0052339944
        0.6882000000        -0.0044964733
s   8 1.0 
    15330.0000000000        -0.1936657939
     2299.0000000000        -0.3632249960
      522.4000000000        -0.6192189910
      147.3000000000        -0.9677187516
       47.5500000000        -1.2940243602
       16.7600000000        -1.3817163263
        6.2070000000        -0.8447542687
        0.6882000000         0.5573175589
s   1 1.0 
        1.7520000000         1.0853271534
s   1 1.0 
        0.2384000000         0.2431586819
p   3 1.0 
       34.4600000000         4.8988750613
        7.7490000000         4.7502609215
        2.2800000000         3.2044979545
p   1 1.0 
        0.7156000000         0.9381623559
p   1 1.0 
        0.2140000000         0.2074709543
d   1 1.0 
        2.3140000000        12.3767310624
d   1 1.0 
        0.6450000000         1.3234257612
f   1 1.0 
        1.4280000000        12.7097950062

  3 0
s   3 1.0 
       33.8700000000         0.2551080577
        5.0950000000         0.4600978881
        1.1590000000         0.6784140671
s   1 1.0 
        0.3258000000         0.3073430538
s   1 1.0 
        0.1027000000         0.1292968442
p   1 1.0 
        1.4070000000         2.1842769845
p   1 1.0 
        0.3880000000         0.4364954740
d   1 1.0 
        1.0570000000         3.1412413909

  4 0
s   3 1.0 
       33.8700000000         0.2551080577
        5.0950000000         0.4600978881
        1.1590000000         0.6784140671
s   1 1.0 
        0.3258000000         0.3073430538
s   1 1.0 
        0.1027000000         0.1292968442
p   1 1.0 
        1.4070000000         2.1842769845
p   1 1.0 
        0.3880000000         0.4364954740
d   1 1.0 
        1.0570000000         3.1412413909

[5D]
[7F]
[9G]
[MO]
 Sym=     1a
 Ene= -1.96071832758334E+01
 Spin= Alpha
 Occup= 1.000000
  1       0.0000815734468775
  2       0.0003227382111674
  3       0.0004271246798665
  4      -0.0008687210470613
  5       0.0004223079092455
  6      -0.0000000001558077
  7      -0.0000000065310198
  8       0.0004768699245712
  9       0.0000000026001093
 10      -0.0000000211669171
 11      -0.0007664744844116
 12       0.0000000017757508
 13       0.0000000216577438
 14      -0.0000875620498685
 15      -0.0000000078080552
 16       0.0000000004185766
 17       0.0002122686870532
 18      -0.0000000001507604
 19       0.0000933656656981
 20       0.0000000045331854
 21       0.0000000091950702
 22      -0.0000730338917068
 23      -0.0000000008284329
 24      -0.0000000069218312
 25       0.0001756699094959
 26      -0.0000000001610266
 27       0.0000000213755150
 28      -0.0000000090793956
 29       0.0005190834555900
 30       0.0000000000371679
 31       0.9699994290747957
 32      -0.0045205763496693
 33       0.0522019923210268
 34       0.0037237174108847
 35      -0.0018044865397326
 36      -0.0000000001706291
 37       0.0000000409423569
 38       0.0010332535561782
 39       0.0000000000799899
 40      -0.0000000216536141
 41      -0.0003530158312614
 42      -0.0000000003406848
 43       0.0000000074661505
 44      -0.0003366340322168
 45      -0.0000000087298167
 46      -0.0000000156770258
 47      -0.0001860393872718
 48      -0.0000000000143739
 49       0.0002990347488652
 50       0.0000000152458620
 51       0.0000000041765903
 52      -0.0002694413948928
 53       0.0000000000948701
 54       0.0000000023656816
 55      -0.0000721471704736
 56       0.0000000000008892
 57      -0.0000000032869550
 58      -0.0000000013291780
 59      -0.0000360453863085
 60      -0.0000000000021105
 61       0.0001878993888883
 62      -0.0000063438829486
 63      -0.0001323337667360
 64       0.0000653910216334
 65      -0.0001188091872663
 66       0.0000000019741581
 67      -0.0000782351442416
 68       0.0000917526912744
 69      -0.0000000032231032
 70       0.0000915384694399
 71       0.0000000055677427
 72       0.0000000023091646
 73      -0.0000550493119662
 74      -0.0000265572828959
 75       0.0001878991692547
 76      -0.0000063392063714
 77      -0.0001323312746340
 78       0.0000653911167979
 79       0.0001188092201857
 80      -0.0000000049143422
 81      -0.0000782333406872
 82      -0.0000917504891238
 83       0.0000000115296184
 84       0.0000915381516893
 85       0.0000000065917010
 86       0.0000000038217096
 87      -0.0000550492992771
 88       0.0000265577360297
 Sym=     1a
 Ene= -1.06349771170765E+01
 Spin= Alpha
 Occup= 1.000000
  1       0.9792702777998662
  2       0.0121019967163357
  3       0.0505319656215382
  4       0.0144147481839267
  5       0.0010989826763945
  6      -0.0000000002946969
  7      -0.0000000276989448
  8      -0.0007905564522441
  9       0.0000000118262664
 10       0.0000000268414726
 11      -0.0015640833913418
 12      -0.0000000030238407
 13       0.0000000383041752
 14      -0.0023432033316101
 15      -0.0000001135634974
 16      -0.0000000661485667
 17       0.0007234256135239
 18      -0.0000000012805795
 19      -0.0031328744707983
 20      -0.0000001122318053
 21      -0.0000001341546434
 22      -0.0003060710986186
 23      -0.0000000042298470
 24       0.0000000033754457
 25      -0.0000857744161856
 26      -0.0000000007392051
 27      -0.0000000814842520
 28       0.0000000657004910
 29      -0.0026317458617911
 30      -0.0000000000839016
 31      -0.0012611231903281
 32      -0.0017889275288114
 33       0.0008577159462589
 34      -0.0067220503371109
 35      -0.0007408061067359
 36       0.0000000000137042
 37       0.0000000168415497
 38       0.0040671045250243
 39      -0.0000000002257779
 40      -0.0000000922764401
 41       0.0023645363162482
 42       0.0000000014923194
 43      -0.0000000572224720
 44       0.0000414781752943
 45       0.0000000029975730
 46      -0.0000000009169096
 47      -0.0000812032960401
 48       0.0000000000334113
 49       0.0012844050480312
 50       0.0000001030447962
 51       0.0000000016488720
 52      -0.0022738117065891
 53      -0.0000000000180980
 54       0.0000000195933040
 55      -0.0003585765708939
 56       0.0000000000291847
 57      -0.0000000305920517
 58       0.0000000049016805
 59      -0.0006741362351102
 60       0.0000000000786022
 61      -0.0000107612950325
 62      -0.0084277516002022
 63      -0.0026637031173730
 64      -0.0007041213034364
 65       0.0009978079179364
 66      -0.0000000050161448
 67      -0.0023624853692238
 68       0.0039651483114921
 69      -0.0000000243397610
 70       0.0007432320551352
 71      -0.0000000146849881
 72       0.0000000075085008
 73       0.0006244005879714
 74       0.0013984858963334
 75      -0.0000107604517348
 76      -0.0084277304234239
 77      -0.0026637116792152
 78      -0.0007041199813199
 79      -0.0009978060370559
 80       0.0000000386308287
 81      -0.0023624825305887
 82      -0.0039651407039708
 83       0.0000001221237009
 84       0.0007432315563833
 85       0.0000000405154463
 86       0.0000000681857331
 87       0.0006243994888660
 88      -0.0013984849503139
 Sym=     1a
 Ene= -1.48989533490760E+00
 Spin= Alpha
 Occup= 1.000000
  1      -0.0243375223794603
  2       0.2170286237102663
  3       0.0554636544372069
  4       0.0352833292647350
  5       0.1092849098820229
  6       0.0000000017061339
  7      -0.0000024848312929
  8       0.0766631639665743
  9       0.0000000092765133
 10      -0.0000017333757742
 11      -0.0030621048373283
 12       0.0000000028800982
 13       0.0000000603609338
 14      -0.0118242990589394
 15      -0.0000008044428145
 16      -0.0000001155714679
 17       0.0149332248818258
 18      -0.0000000012298136
 19      -0.0149534329843720
 20      -0.0000008490880890
 21      -0.0000003027602708
 22       0.0114250934422248
 23      -0.0000000038019403
 24       0.0000001432924699
 25      -0.0026012467322310
 26       0.0000000002498440
 27      -0.0000003774410469
 28       0.0000001749508704
 29      -0.0102081137739699
 30      -0.0000000003809092
 31      -0.0139366678779311
 32       0.4843613668296965
 33       0.1419293104168515
 34       0.2170803301226008
 35      -0.0992348170143017
 36      -0.0000000039175127
 37       0.0000022568751847
 38      -0.1140150365277167
 39      -0.0000000021588191
 40       0.0000025909874332
 41      -0.0229830618297710
 42       0.0000000003030383
 43       0.0000005265886553
 44      -0.0057199572431018
 45      -0.0000002930838086
 46      -0.0000001433780450
 47       0.0029683186387868
 48       0.0000000005068919
 49      -0.0109333063330495
 50      -0.0000006365494606
 51      -0.0000002044116982
 52       0.0091132825380956
 53      -0.0000000004640015
 54      -0.0000001624004934
 55       0.0029339656671331
 56       0.0000000002597347
 57       0.0000001751486915
 58       0.0000000325895385
 59       0.0025081890411880
 60      -0.0000000001696700
 61       0.0112392724635847
 62      -0.0075426957033127
 63      -0.0035083228551977
 64       0.0002733131871938
 65       0.0006287911051331
 66      -0.0000000199275112
 67      -0.0014660747357632
 68       0.0084212879984810
 69      -0.0000001391182445
 70       0.0003098895111480
 71      -0.0000000360184577
 72       0.0000000310762523
 73       0.0015848066257582
 74       0.0005850992299990
 75       0.0112392664381031
 76      -0.0075426845946848
 77      -0.0035083177455745
 78       0.0002733114324024
 79      -0.0006287910485551
 80       0.0000000072130700
 81      -0.0014660732460271
 82      -0.0084212813173539
 83       0.0000002056022931
 84       0.0003098908685999
 85      -0.0000000125173015
 86       0.0000000567242121
 87       0.0015848050845649
 88      -0.0005851013579274
 Sym=     1a
 Ene= -9.96295888454219E-01
 Spin= Alpha
 Occup= 1.000000
  1      -0.0196103328198722
  2       0.4047803093258274
  3       0.1096666136881633
  4       0.1532611980113107
  5      -0.0932397839091456
  6       0.0000000552396077
  7       0.0000021276496599
  8      -0.0940932934273696
  9       0.0000000458220454
 10       0.0000021388290260
 11      -0.0333737495826288
 12       0.0000000140604784
 13       0.0000007633333610
 14      -0.0071897410653956
 15      -0.0000001295276678
 16      -0.0000003977699062
 17      -0.0065954636175267
 18      -0.0000000004113313
 19      -0.0040845503607763
 20       0.0000000710052160
 21      -0.0000003416644195
 22      -0.0101375248300954
 23       0.0000000023399456
 24      -0.0000000675241806
 25       0.0012132417134494
 26       0.0000000003027993
 27      -0.0000000548738997
 28       0.0000001313572544
 29      -0.0036837356768846
 30       0.0000000007465625
 31      -0.0011140049485254
 32      -0.2325158731874067
 33      -0.0723625167121237
 34      -0.1880139644395304
 35      -0.1043999072312266
 36       0.0000000229753511
 37       0.0000023990655912
 38      -0.1169662285737355
 39       0.0000000351271415
 40       0.0000026710525407
 41      -0.0493356368472549
 42       0.0000000103481683
 43       0.0000011257313216
 44      -0.0012297045846006
 45      -0.0000001757882350
 46       0.0000000613412727
 47       0.0052036927708602
 48      -0.0000000041298705
 49      -0.0024784249870789
 50      -0.0000003305856716
 51       0.0000001284386542
 52       0.0104974397526493
 53      -0.0000000023267171
 54      -0.0000000602459898
 55       0.0010813989935342
 56      -0.0000000004420904
 57       0.0000000341019498
 58       0.0000000393868550
 59      -0.0001461800200590
 60      -0.0000000006112367
 61       0.1108789795847187
 62       0.1374276009027784
 63       0.0061912424790254
 64       0.0051718689746130
 65      -0.0107778155420655
 66       0.0000001065684966
 67       0.0053145820633827
 68      -0.0158679966530053
 69       0.0000002034453200
 70      -0.0017222008761067
 71       0.0000000314847690
 72      -0.0000000510985935
 73      -0.0021563393412838
 74      -0.0024274637014498
 75       0.1108789148340759
 76       0.1374275447900685
 77       0.0061912452039166
 78       0.0051718653910680
 79       0.0107778072422248
 80      -0.0000003429173621
 81       0.0053145819909894
 82       0.0158679953662700
 83      -0.0000004363505073
 84      -0.0017222001910775
 85      -0.0000000669059611
 86      -0.0000001597036600
 87      -0.0021563383556180
 88       0.0024274624821151
 Sym=     1a
 Ene= -8.89631744124681E-01
 Spin= Alpha
 Occup= 1.000000
  1       0.0000000011159906
  2      -0.0000000704406254
  3      -0.0000000262843086
  4       0.0000000211417379
  5      -0.0000000303762000
  6       0.2232179122264441
  7      -0.0000046409120713
  8      -0.0000000457080423
  9       0.2349407873542397
 10      -0.0000048839664217
 11      -0.0000000097631883
 12       0.0554547556810920
 13      -0.0000011573408895
 14       0.0000000030554515
 15      -0.0000001109499988
 16      -0.0000001197797962
 17      -0.0000000032055005
 18       0.0053017166805422
 19      -0.0000000251355808
 20      -0.0000004550499752
 21      -0.0000004959002572
 22      -0.0000000289566073
 23       0.0218660726735311
 24       0.0000001184634960
 25      -0.0000000068863647
 26      -0.0023235314593526
 27      -0.0000001003897485
 28      -0.0000002753726663
 29       0.0000000007171449
 30      -0.0069018560734362
 31      -0.0000000004601235
 32       0.0000000703042385
 33       0.0000000219531979
 34       0.0000000949743537
 35       0.0000000830406746
 36       0.2637386331727158
 37      -0.0000054884736579
 38       0.0000000905739945
 39       0.3159755451270183
 40      -0.0000065724736200
 41       0.0000000250951594
 42       0.1493734566316181
 43      -0.0000031066159922
 44      -0.0000000647199126
 45       0.0000001910730663
 46       0.0000002094835693
 47      -0.0000000681630214
 48      -0.0091400225559652
 49       0.0000000386490350
 50       0.0000005070769334
 51       0.0000005547621050
 52       0.0000000349231118
 53      -0.0244192230369304
 54       0.0000001514041292
 55      -0.0000000014136250
 56      -0.0029736599688219
 57       0.0000000266986145
 58      -0.0000001845125894
 59       0.0000000009606900
 60      -0.0027884748740131
 61       0.0967134191998090
 62       0.1424383194497466
 63       0.0191205497084187
 64       0.0081791240472974
 65      -0.0071417582242622
 66      -0.0000000379518351
 67       0.0118442662803167
 68      -0.0112716095974256
 69      -0.0000000353364347
 70      -0.0016482017296788
 71       0.0000000085508931
 72       0.0000000509524824
 73       0.0006445808953345
 74      -0.0042529257142750
 75      -0.0967134068309410
 76      -0.1424384226900986
 77      -0.0191205694139723
 78      -0.0081791217223016
 79      -0.0071417555745486
 80       0.0000003344527890
 81      -0.0118443086093021
 82      -0.0112716281152926
 83       0.0000005032326725
 84       0.0016482039082953
 85       0.0000001679683965
 86       0.0000001427804224
 87      -0.0006445864081235
 88      -0.0042529288230398
 Sym=     1a
 Ene= -8.46554007358806E-01
 Spin= Alpha
 Occup= 1.000000
  1       0.0007588251906095
  2      -0.0103799487816655
  3      -0.0072371959441390
  4       0.0692128093806502
  5      -0.2202243053335396
  6      -0.0000000211822123
  7       0.0000050250661415
  8      -0.2094249474845225
  9      -0.0000000322517112
 10       0.0000047931789856
 11      -0.0214546077551923
 12      -0.0000000119727810
 13       0.0000004916723290
 14       0.0029340948992380
 15       0.0000004679267447
 16      -0.0000002126384659
 17      -0.0153658305265777
 18      -0.0000000030503846
 19       0.0003799425386010
 20       0.0000000638254711
 21      -0.0000000326633982
 22      -0.0019302222955832
 23      -0.0000000001934607
 24      -0.0000001459134626
 25       0.0025691371086973
 26       0.0000000007876916
 27       0.0000001965299095
 28      -0.0000000084589209
 29       0.0036723099526992
 30       0.0000000036373071
 31       0.0013402971483597
 32       0.1872203749051320
 33       0.0592674501419577
 34       0.2069659177739291
 35       0.3109686354849268
 36      -0.0000000791981482
 37      -0.0000070182561737
 38       0.3575637936603321
 39      -0.0000000928035527
 40      -0.0000080821997660
 41       0.1693577894321315
 42      -0.0000000488315964
 43      -0.0000038232569267
 44       0.0051059346180267
 45       0.0000004632191791
 46      -0.0000000659051217
 47      -0.0118645553486963
 48      -0.0000000008650547
 49       0.0112702538608539
 50       0.0000010760361541
 51      -0.0000001677853020
 52      -0.0277125543531963
 53       0.0000000071013572
 54       0.0000001925030143
 55      -0.0034549867865370
 56       0.0000000008711583
 57      -0.0000001609368260
 58      -0.0000000800851752
 59      -0.0013117920781740
 60       0.0000000001481807
 61       0.0695263234872910
 62       0.1008721322579543
 63       0.0204747486855109
 64       0.0019956760680518
 65      -0.0077298718065390
 66       0.0000001150472500
 67       0.0004927461446603
 68      -0.0133437303509548
 69       0.0000002692407619
 70      -0.0004901556011285
 71       0.0000000690034662
 72      -0.0000000557641118
 73      -0.0029496552051944
 74      -0.0010074084067764
 75       0.0695263332727294
 76       0.1008721556031966
 77       0.0204747489127223
 78       0.0019956802531229
 79       0.0077298699396849
 80      -0.0000002053762420
 81       0.0004927550890234
 82       0.0133437297914090
 83      -0.0000002917221511
 84      -0.0004901579790587
 85       0.0000000266282912
 86      -0.0000001024189726
 87      -0.0029496515648517
 88       0.0010074126507236
 Sym=     1a
 Ene= -7.91773362328855E-01
 Spin= Alpha
 Occup= 1.000000
  1       0.0000000032217292
  2      -0.0000000139964320
  3      -0.0000000078762517
  4       0.0000000050320706
  5       0.0000039742923298
  6       0.0000036100681970
  7       0.1735543318277284
  8       0.0000049210094365
  9       0.0000044803530301
 10       0.2150558597094365
 11       0.0000016508249689
 12       0.0000015110069422
 13       0.0726886014128078
 14      -0.0000007894751122
 15       0.0200617286320091
 16       0.0000000001729197
 17       0.0000004582840165
 18       0.0000004166280313
 19      -0.0000013568366255
 20       0.0343037111901309
 21      -0.0000000003997998
 22       0.0000007838186377
 23       0.0000007073000152
 24      -0.0067976679426306
 25      -0.0000006246310942
 26      -0.0000001208586944
 27       0.0068473669070816
 28       0.0000000002553199
 29      -0.0000001922489558
 30      -0.0000001739675861
 31      -0.0000000010557359
 32      -0.0000000157178573
 33      -0.0000000027887762
 34      -0.0000000280033088
 35       0.0000076104289915
 36       0.0000069939149667
 37       0.3364586558324468
 38       0.0000091618150991
 39       0.0000084194581249
 40       0.4047571547235352
 41       0.0000049813614452
 42       0.0000045758024759
 43       0.2198789929984539
 44       0.0000003965949350
 45      -0.0100865266214958
 46       0.0000000011367963
 47      -0.0000002303227279
 48      -0.0000002066938235
 49       0.0000011639840489
 50      -0.0295730533388838
 51      -0.0000000005581650
 52      -0.0000006687690843
 53      -0.0000006177415344
 54      -0.0050865096778424
 55      -0.0000003513549496
 56      -0.0000001964595141
 57       0.0018980419654454
 58      -0.0000000000631112
 59      -0.0000000526440186
 60      -0.0000000485081630
 61      -0.0000000105310317
 62      -0.0000000322967814
 63      -0.0000000071089440
 64       0.0000000655855848
 65       0.0000000615689151
 66       0.0029047831634685
 67       0.0000002183846147
 68       0.0000002101691162
 69       0.0096923224935890
 70       0.0000000092760120
 71       0.0010656475521529
 72      -0.0014114259664209
 73       0.0000000543624640
 74      -0.0000000094713892
 75      -0.0000000133500252
 76      -0.0000000168822722
 77      -0.0000000073133546
 78       0.0000000654191589
 79       0.0000000584557993
 80       0.0029047808374763
 81       0.0000002185035236
 82       0.0000002025907975
 83       0.0096923214232321
 84      -0.0000000924033608
 85       0.0010656464177841
 86       0.0014114253917484
 87      -0.0000000050027977
 88       0.0000000541700680
 Sym=     1a
 Ene= -6.94186357574683E-01
 Spin= Alpha
 Occup= 1.000000
  1       0.0000000023786310
  2       0.0000000145086565
  3       0.0000000095072417
  4      -0.0000000240339247
  5      -0.0000000115078703
  6      -0.1667391823397736
  7       0.0000034585859788
  8       0.0000000495254912
  9      -0.1841958916640637
 10       0.0000038223562534
 11       0.0000000182421609
 12      -0.0697521822494975
 13       0.0000014424263672
 14      -0.0000000021307998
 15      -0.0000006254055135
 16      -0.0000006854214295
 17       0.0000000060203314
 18       0.0301228737551774
 19       0.0000000289490940
 20      -0.0000008091944546
 21      -0.0000008854143862
 22       0.0000000504135323
 23       0.0389500017763190
 24       0.0000000127079822
 25       0.0000000064269785
 26      -0.0002551882791919
 27      -0.0000001434006698
 28      -0.0000001773587378
 29       0.0000000003687202
 30      -0.0060157479429927
 31      -0.0000000005283793
 32       0.0000000067338516
 33       0.0000000027730780
 34      -0.0000000569811927
 35       0.0000000106678521
 36       0.3095956229236521
 37      -0.0000064267966583
 38       0.0000000303588177
 39       0.3707409298434769
 40      -0.0000077022085317
 41       0.0000000516168795
 42       0.2355299731310309
 43      -0.0000048913986323
 44       0.0000000823519438
 45       0.0000000448500659
 46       0.0000000461386089
 47       0.0000000821962522
 48      -0.0022286183490473
 49      -0.0000000393496433
 50       0.0000001445081142
 51       0.0000001588820828
 52      -0.0000000581278676
 53      -0.0068545207351265
 54       0.0000000968525171
 55      -0.0000000003479233
 56      -0.0019005337633090
 57       0.0000001222374293
 58      -0.0000000025994489
 59      -0.0000000020519810
 60       0.0023659461085260
 61      -0.1342385310102102
 62      -0.2153066043590151
 63      -0.0608204739152655
 64      -0.0059974167779033
 65       0.0081263536905520
 66      -0.0000000325276719
 67      -0.0098944923498395
 68       0.0086417001938225
 69       0.0000000445728034
 70       0.0007861244977529
 71      -0.0000000403162314
 72      -0.0000000036184030
 73       0.0010022143325488
 74       0.0023339871293420
 75       0.1342385468501539
 76       0.2153067931146820
 77       0.0608205219878014
 78       0.0059974170304040
 79       0.0081263561533279
 80      -0.0000003048330206
 81       0.0098945513150775
 82       0.0086417409839329
 83      -0.0000004065951529
 84      -0.0007861282206746
 85      -0.0000000565379881
 86      -0.0000001024194136
 87      -0.0010022108255623
 88       0.0023339939488840
 Sym=     1a
 Ene= -3.94941068585349E-01
 Spin= Alpha
 Occup= 0.000000
  1       0.0000000029338974
  2       0.0000000017734260
  3      -0.0000000049352984
  4      -0.0000000000158018
  5       0.0000072071325969
  6       0.0000065842276286
  7       0.3170709816532105
  8       0.0000100076711453
  9       0.0000091433602969
 10       0.4402650834037517
 11       0.0000089144234247
 12       0.0000081459080242
 13       0.3919097004017990
 14       0.0000005255659276
 15      -0.0133395460671777
 16       0.0000000009649514
 17      -0.0000003041438800
 18      -0.0000002771626774
 19       0.0000010980117694
 20      -0.0279519708880507
 21      -0.0000000023219052
 22      -0.0000006327159886
 23      -0.0000005817010247
 24      -0.0000336489531235
 25       0.0000000779968480
 26      -0.0000000744814292
 27      -0.0022134623176864
 28       0.0000000003901968
 29       0.0000000608186619
 30       0.0000000570815407
 31      -0.0000000003549256
 32      -0.0000000005799610
 33      -0.0000000000734276
 34      -0.0000000067490279
 35      -0.0000053000898108
 36      -0.0000048390373452
 37      -0.2330860339005982
 38      -0.0000062137386656
 39      -0.0000056751659604
 40      -0.2734650635018237
 41      -0.0000067614538614
 42      -0.0000061735492079
 43      -0.2974220699777780
 44       0.0000001817407315
 45      -0.0046405653619757
 46       0.0000000001408515
 47      -0.0000001070951186
 48      -0.0000000946813579
 49       0.0000004305189190
 50      -0.0109393229639468
 51       0.0000000007502862
 52      -0.0000002476934621
 53      -0.0000002286539352
 54      -0.0003901494994281
 55      -0.0000001464527536
 56       0.0000000942430455
 57       0.0034773858508989
 58      -0.0000000000605678
 59      -0.0000000967589910
 60      -0.0000000886049415
 61       0.0000000026438912
 62      -0.0000000040169719
 63      -0.0000000018978975
 64       0.0000002071041083
 65       0.0000001888681613
 66       0.0091015191671276
 67       0.0000008891297951
 68       0.0000008177504853
 69       0.0391864592108118
 70       0.0000000745177135
 71       0.0022973779586177
 72      -0.0045772412910538
 73       0.0000001475171579
 74      -0.0000000560392731
 75       0.0000000054692348
 76       0.0000000066862813
 77       0.0000000104356346
 78       0.0000002073487836
 79       0.0000001892924829
 80       0.0091015150998198
 81       0.0000008927662849
 82       0.0000008099917604
 83       0.0391864574858087
 84      -0.0000002547766805
 85       0.0022973782928842
 86       0.0045772404001391
 87      -0.0000000423156612
 88       0.0000001519778639
 Sym=     1a
 Ene= -1.94927465913725E-01
 Spin= Alpha
 Occup= 0.000000
  1      -0.0113067053259260
  2      -0.3294527263688155
  3      -0.1059818786990211
  4      -1.5956513565999466
  5       0.1292409275765206
  6       0.0000001710878354
  7      -0.0000029461368433
  8       0.1918990498474912
  9       0.0000001477486918
 10      -0.0000043709633044
 11       0.4966487149699901
 12       0.0000002767398681
 13      -0.0000113032206315
 14      -0.0117171575862419
 15      -0.0000003732706169
 16      -0.0000005021104520
 17      -0.0039351821821801
 18       0.0000000077747228
 19      -0.0168664329598646
 20      -0.0000006249316853
 21      -0.0000006491043253
 22      -0.0014082543617652
 23       0.0000000734711910
 24       0.0000001669019668
 25      -0.0030028875940204
 26       0.0000000051745411
 27      -0.0000001921238220
 28      -0.0000000223627490
 29      -0.0029669160063758
 30       0.0000000003935834
 31      -0.0003331712791213
 32      -0.0022850709491643
 33      -0.0003579738141512
 34      -0.0677124493761987
 35      -0.0442753567632076
 36      -0.0000000609232018
 37       0.0000010072267785
 38      -0.0406320602722627
 39      -0.0000000703535247
 40       0.0000009249073926
 41      -0.0610816850237416
 42      -0.0000001278447580
 43       0.0000013914280176
 44      -0.0001677687035225
 45       0.0000000167522787
 46      -0.0000000278390817
 47      -0.0009673281379718
 48      -0.0000000047515483
 49      -0.0028695960244759
 50       0.0000002179755903
 51      -0.0000004036664066
 52      -0.0145444317041157
 53      -0.0000000114724354
 54      -0.0000000220252314
 55       0.0003947515192994
 56      -0.0000000003684268
 57      -0.0000000302169000
 58       0.0000000535540300
 59      -0.0015994382836981
 60      -0.0000000031370377
 61       0.0637312982784098
 62       0.2087288202265707
 63       1.1837543792219616
 64      -0.0058176951078696
 65       0.0178212084200709
 66      -0.0000002375741950
 67       0.0035132099896300
 68       0.0090640637513816
 69      -0.0000002660277417
 70       0.0000858633384023
 71      -0.0000000718444888
 72       0.0000000252638325
 73       0.0023055446036804
 74       0.0011021812885527
 75       0.0637313902535298
 76       0.2087288027223684
 77       1.1837553169493211
 78      -0.0058177134719493
 79      -0.0178212210227544
 80       0.0000005035164772
 81       0.0035131311877482
 82      -0.0090641587478602
 83       0.0000000976288623
 84       0.0000858691232714
 85      -0.0000000272424407
 86       0.0000000747199693
 87       0.0023055454945790
 88      -0.0011021929207397
 Sym=     1a
 Ene= -1.37177251078249E-01
 Spin= Alpha
 Occup= 0.000000
  1       0.0000000492027649