
                                 *****************
                                 * O   R   C   A *
                                 *****************

                                            #,                                       
                                            ###                                      
                                            ####                                     
                                            #####                                    
                                            ######                                   
                                           ########,                                 
                                     ,,################,,,,,                         
                               ,,#################################,,                 
                          ,,##########################################,,             
                       ,#########################################, ''#####,          
                    ,#############################################,,   '####,        
                  ,##################################################,,,,####,       
                ,###########''''           ''''###############################       
              ,#####''   ,,,,##########,,,,          '''####'''          '####       
            ,##' ,,,,###########################,,,                        '##       
           ' ,,###''''                  '''############,,,                           
         ,,##''                                '''############,,,,        ,,,,,,###''
      ,#''                                            '''#######################'''  
     '                                                          ''''####''''         
             ,#######,   #######,   ,#######,      ##                                
            ,#'     '#,  ##    ##  ,#'     '#,    #''#        ,####,   ,####,        
            ##       ##  ##   ,#'  ##            #'  '#       #'       #'  '#        
            ##       ##  #######   ##           ,######,      #####,   #    #        
            '#,     ,#'  ##    ##  '#,     ,#' ,#      #,     #,   #   #,  ,#        
             '#######'   ##     ##  '#######'  #'      '#     '####' # '####'        



                #########################################################
                #                        -***-                          #
                #          Department of theory and spectroscopy        #
                #                                                       #
                #                      Frank Neese                      #
                #                                                       #
                #     Directorship, Architecture, Infrastructure        #
                #                    SHARK, DRIVERS                     #
                #        Core code/Algorithms in most modules           #
                #                                                       #
                #        Max Planck Institute fuer Kohlenforschung      #
                #                Kaiser Wilhelm Platz 1                 #
                #                 D-45470 Muelheim/Ruhr                 #
                #                      Germany                          #
                #                                                       #
                #                  All rights reserved                  #
                #                        -***-                          #
                #########################################################


                         Program Version 6.0.1  -  RELEASE   -


 With contributions from (in alphabetic order):
[Max-Planck-Institut fuer Kohlenforschung]                               
  Daniel Aravena         : Magnetic Suceptibility                        
  Michael Atanasov       : Ab Initio Ligand Field Theory (pilot matlab implementation)
  Alexander A. Auer      : GIAO ZORA, VPT2 properties, NMR spectrum      
  Ute Becker             : All parallelization in ORCA, NUMFREQ, NUMCALC 
  Giovanni Bistoni       : ED, misc. LED, open-shell LED, HFLD           
  Martin Brehm           : Molecular dynamics                            
  Dmytro Bykov           : pre 5.0 version of the SCF Hessian            
  Marcos Casanova-Páez   : Triplet and SCS-CIS(D). UHF-(DLPNO)-IP/EA/STEOM-CCSD. UHF-CVS-IP/STEOM-CCSD   
  Vijay G. Chilkuri      : MRCI spin determinant printing, contributions to CSF-ICE 
  Pauline Colinet        : FMM embedding                                 
  Dipayan Datta          : RHF DLPNO-CCSD density                        
  Achintya Kumar Dutta   : EOM-CC, STEOM-CC                              
  Nicolas Foglia         : Exact transition moments, OPA infrastructure, MCD improvements    
  Dmitry Ganyushin       : Spin-Orbit,Spin-Spin,Magnetic field MRCI      
  Miquel Garcia-Rates    : C-PCM and meta-GGA Hessian, CCSD/C-PCM, Gaussian charge scheme 
  Tiago L. C. Gouveia    : GS-ROHF, GS-ROCIS                             
  Yang Guo               : DLPNO-NEVPT2, F12-NEVPT2, CIM, IAO-localization        
  Andreas Hansen         : Spin unrestricted coupled pair/coupled cluster methods 
  Ingolf Harden          : AUTO-CI MPn and infrastructure                
  Benjamin Helmich-Paris : MC-RPA, TRAH-(SCF,CASSCF), AVAS, COSX integrals, SCF dyn. polar. 
  Lee Huntington         : MR-EOM, pCC                                   
  Robert Izsak           : Overlap fitted RIJCOSX, COSX-SCS-MP3, EOM     
  Riya Kayal             : Wick's Theorem for AUTO-CI, AUTO-CI UHF-CCSDT 
  Emily Kempfer          : AUTO-CI, RHF CISDT and CCSDT                  
  Christian Kollmar      : KDIIS, OOCD, Brueckner-CCSD(T), CCSD density, CASPT2, CASPT2-K, improved NEVPT2 
  Axel Koslowski         : Symmetry handling                             
  Simone Kossmann        : meta-GGA functionals, TD-DFT gradient, OOMP2, (MP2 Hessian; deprecated post 5.0) 
  Lucas Lang             : DCDCAS                                        
  Marvin Lechner         : AUTO-CI (C++ implementation), FIC-MRCC        
  Spencer Leger          : CASSCF response                               
  Dagmar Lenk            : GEPOL surface, SMD, ORCA-2-JSON               
  Dimitrios Liakos       : Extrapolation schemes; Compound Job, initial MDCI parallelization 
  Dimitrios Manganas     : Further ROCIS development; embedding schemes. LFT, Crystal Embedding 
  Dimitrios Pantazis     : SARC Basis sets                               
  Anastasios Papadopoulos: AUTO-CI, single reference methods and gradients 
  Taras Petrenko         : pre 6.0 DFT Hessian and TD-DFT gradient, (ASA, deprecated), ECA, 1-Electron XAS/XES, NRVS 
  Peter Pinski           : DLPNO-MP2, DLPNO-MP2 Gradient                 
  Christoph Reimann      : Effective Core Potentials                     
  Marius Retegan         : Local ZFS, SOC                                
  Christoph Riplinger    : Optimizer, TS searches, QM/MM, DLPNO-CCSD(T), (RO)-DLPNO pert. Triples 
  Michael Roemelt        : Original ROCIS implementation                 
  Masaaki Saitow         : Open-shell DLPNO-CCSD energy and density      
  Barbara Sandhoefer     : DKH picture change effects                    
  Kantharuban Sivalingam : CASSCF convergence/infrastructure, NEVPT2 and variants, FIC-MRCI 
  Bernardo de Souza      : ESD, SOC TD-DFT                               
  Georgi L. Stoychev     : AutoAux, RI-MP2 NMR, DLPNO-MP2 response, X2C  
  Van Anh Tran           : RI-MP2 g-tensors                              
  Willem Van den Heuvel  : Paramagnetic NMR                              
  Zikuan Wang            : NOTCH, Electric field optimization            
  Frank Wennmohs         : Technical directorship and infrastructure     
  Hang Xu                : AUTO-CI-Response properties                   
                                                                         
[FACCTs GmbH]                                                            
  Markus Bursch, Miquel Garcia-Rates, Christoph Riplinger, Bernardo de Souza, Georgi L. Stoychev 
                                                                 
  APM, Basis sets (HGBS, AHGBS, def-TZVP (Ac-Lr), def2-XVPD (La-Lu)), CI-OPT, improved COSX, DLPNO-Multilevel,           
  DOCKER, DRACO, updates on ESD, GOAT, IRC, LR-CPCM, MBIS, meta-GGA TD-DFT gradient, ML-optimized integration grids, 
  MM, NACMEs, nearIR, NEB, NEB-TS, NL-DFT gradient (VV10), 2- and 3-layer-ONIOM, interface openCOSMO-RS, QMMM,   
  Crystal-QMMM, SF, symmetry and pop. for TD-DFT, r2SCAN hybrids, SOLVATOR                                   
                                                                         
[Other institutions]                                                     
  V. Asgeirsson          : NEB                                           
  Christoph Bannwarth    : sTDA-DFT, sTD-DFT, PBEh-3c, B97-3c, D3        
  Sebastian Ehlert       : rSCAN, r2SCAN, r2SCAN-3c, D4, dhf basis sets  
  Marvin Friede          : D4 for Fr, Ra, Ac-Lr                          
  Lars Goerigk           : TD-DFT with DH, B97 family of functionals     
  Stefan Grimme          : VdW corrections, initial TS optimization, DFT functionals, gCP, sTDA/sTD-DF 
  Waldemar Hujo          : DFT-NL                                        
  H. Jonsson             : NEB                                           
  Holger Kruse           : gCP                                           
  Marcel Mueller         : wB97X-3c, vDZP basis set                      
  Hagen Neugebauer       : wr2SCAN                                       
  Tobias Risthaus        : range-separated hybrid DFT                    
  Lukas Wittmann         : regularized MP2, r2SCAN double-hybrids, wr2SCAN        
                                                                         
We gratefully acknowledge several colleagues who have allowed us to      
interface, adapt or use parts of their codes:                            
  Ed Valeev, F. Pavosevic, A. Kumar             : LibInt (2-el integral package), F12 methods 
  Garnet Chan, S. Sharma, J. Yang, R. Olivares  : DMRG                   
  Ulf Ekstrom                                   : XCFun DFT Library      
  Mihaly Kallay                                 : mrcc  (arbitrary order and MRCC methods)
  Frank Weinhold                                : gennbo (NPA and NBO analysis)           
  Simon Mueller                                 : openCOSMO-RS                            
  Christopher J. Cramer and Donald G. Truhlar   : smd solvation model                     
  S Lehtola, MJT Oliveira, MAL Marques          : LibXC Library                           
  Liviu Ungur et al                             : ANISO software                          


 Your calculation uses the libint2 library for the computation of 2-el integrals
 For citations please refer to: http://libint.valeyev.net

 Your ORCA version has been built with support for libXC version: 6.2.2
 For citations please refer to: https://libxc.gitlab.io

 This ORCA versions uses:
   CBLAS   interface :  Fast vector & matrix operations
   LAPACKE interface :  Fast linear algebra routines
   SCALAPACK package :  Parallel linear algebra routines
   Shared memory     :  Shared parallel matrices
   BLAS/LAPACK       :  OpenBLAS 0.3.27  USE64BITINT DYNAMIC_ARCH NO_AFFINITY Haswell SINGLE_THREADED
        Core in use  :  Haswell
   Copyright (c) 2011-2014, The OpenBLAS Project




***************************************
The coordinates will be read from file: H2CO.xyz
***************************************


Warning: RI is on but no J-basis has been assigned. Assigning Def2/J (nothing to worry about!)
================================================================================

----- Orbital basis set information -----
Your calculation utilizes the basis: cc-pVTZ 
       H, B-Ne : Obtained from the ccRepo (grant-hill.group.shef.ac.uk/ccrepo) Feb. 2017
                 T. H. Dunning, Jr., J. Chem. Phys. 90, 1007 (1989)
            He : Obtained from the ccRepo (grant-hill.group.shef.ac.uk/ccrepo) Feb. 2017
                 D. E. Woon, T. H. Dunning, Jr., J. Chem. Phys. 100, 2975 (1994)
  Li-Be, Na-Mg : Obtained from the ccRepo (grant-hill.group.shef.ac.uk/ccrepo) Feb. 2017
                 B. P. Prascher, D. E. Woon, K. A. Peterson, T. H. Dunning, Jr., A. K. Wilson, Theor. Chem. Acc. 128, 69 (2011)
         Al-Ar : Obtained from the ccRepo (grant-hill.group.shef.ac.uk/ccrepo) Feb. 2017
                 D. E. Woon, T. H. Dunning, Jr., J. Chem. Phys. 98, 1358 (1993)
            Ca : Obtained from the Peterson Research Group Website (tyr0.chem.wsu.edu/~kipeters) Feb. 2017
                 J. Koput, K. A. Peterson, J. Phys. Chem. 106, 9595 (2002)
         Sc-Zn : Obtained from the ccRepo (grant-hill.group.shef.ac.uk/ccrepo) Feb. 2017
                 N. B. Balabanov, K. A. Peterson, J. Chem. Phys. 123, 064107 (2005)
                 N. B. Balabanov, K. A. Peterson, J. Chem. Phys. 125, 074110 (2006)
         Ga-Kr : Obtained from the ccRepo (grant-hill.group.shef.ac.uk/ccrepo) Feb. 2017
                 A. K. Wilson, D. E. Woon, K. A. Peterson, T. H. Dunning, Jr., J. Chem. Phys. 110, 7667 (1999)
             Y : Obtained from the ccRepo (grant-hill.group.shef.ac.uk/ccrepo) Feb. 2017
                 K. A. Peterson, D. Figgen, M. Dolg, H. Stoll, J. Chem. Phys. 126, 124101 (2007)
        Ag, Au : Obtained from the Peterson Research Group Website (tyr0.chem.wsu.edu/~kipeters) Feb. 2017
                 K. A. Peterson, C. Puzzarini, Theor. Chem. Acc. 114, 283 (2005)

----- AuxJ basis set information -----
Your calculation utilizes the auxiliary basis: def2/J
   F. Weigend, Phys. Chem. Chem. Phys. 8, 1057 (2006).

================================================================================
                                        WARNINGS
                       Please study these warnings very carefully!
================================================================================


WARNING: your system is open-shell and RHF/RKS was chosen
  ===> : WILL SWITCH to UHF/UKS


================================================================================
                                       INPUT FILE
================================================================================
NAME = H2CO_m.inp
|  1> !B3LYP cc-PVTZ
|  2> * xyzfile 1 2 H2CO.xyz
|  3> %scf
|  4> MaxIter 100
|  5> end
|  6> 
|  7>                          ****END OF INPUT****
================================================================================

                       ****************************
                       * Single Point Calculation *
                       ****************************

---------------------------------
CARTESIAN COORDINATES (ANGSTROEM)
---------------------------------
  C     -0.428444   -1.070959    0.000010
  O      0.770933   -1.070959   -0.000017
  H     -1.017011   -0.133397    0.000004
  H     -1.017011   -2.008522    0.000043

----------------------------
CARTESIAN COORDINATES (A.U.)
----------------------------
  NO LB      ZA    FRAG     MASS         X           Y           Z
   0 C     6.0000    0    12.011   -0.809641   -2.023819    0.000019
   1 O     8.0000    0    15.999    1.456852   -2.023819   -0.000032
   2 H     1.0000    0     1.008   -1.921872   -0.252083    0.000008
   3 H     1.0000    0     1.008   -1.921872   -3.795556    0.000081

--------------------------------
INTERNAL COORDINATES (ANGSTROEM)
--------------------------------
 C      0   0   0     0.000000000000     0.00000000     0.00000000
 O      1   0   0     1.199376339212     0.00000000     0.00000000
 H      1   2   0     1.106993517836   122.11908714     0.00000000
 H      1   2   3     1.106993729249   122.11909198   180.00000241

---------------------------
INTERNAL COORDINATES (A.U.)
---------------------------
 C      0   0   0     0.000000000000     0.00000000     0.00000000
 O      1   0   0     2.266492812615     0.00000000     0.00000000
 H      1   2   0     2.091914580737   122.11908714     0.00000000
 H      1   2   3     2.091914980248   122.11909198   180.00000241

---------------------
BASIS SET INFORMATION
---------------------
There are 3 groups of distinct atoms

 Group   1 Type C   : 18s5p2d1f contracted to 4s3p2d1f pattern {8811/311/11/1}
 Group   2 Type O   : 18s5p2d1f contracted to 4s3p2d1f pattern {8811/311/11/1}
 Group   3 Type H   : 5s2p1d contracted to 3s2p1d pattern {311/11/1}

Atom   0C    basis set group =>   1
Atom   1O    basis set group =>   2
Atom   2H    basis set group =>   3
Atom   3H    basis set group =>   3
---------------------------------
AUXILIARY/J BASIS SET INFORMATION
---------------------------------
There are 3 groups of distinct atoms

 Group   1 Type C   : 12s5p4d2f1g contracted to 6s4p3d1f1g pattern {711111/2111/211/2/1}
 Group   2 Type O   : 12s5p4d2f1g contracted to 6s4p3d1f1g pattern {711111/2111/211/2/1}
 Group   3 Type H   : 5s2p1d contracted to 3s1p1d pattern {311/2/1}

Atom   0C    basis set group =>   1
Atom   1O    basis set group =>   2
Atom   2H    basis set group =>   3
Atom   3H    basis set group =>   3
------------------------------------------------------------------------------
                             ORCA STARTUP CALCULATIONS
                           -- RI-GTO INTEGRALS CHOSEN --
------------------------------------------------------------------------------
------------------------------------------------------------------------------
                   ___                                                        
                  /   \      - P O W E R E D   B Y -                         
                 /     \                                                     
                 |  |  |   _    _      __       _____    __    __             
                 |  |  |  | |  | |    /  \     |  _  \  |  |  /  |          
                  \  \/   | |  | |   /    \    | | | |  |  | /  /          
                 / \  \   | |__| |  /  /\  \   | |_| |  |  |/  /          
                |  |  |   |  __  | /  /__\  \  |    /   |      \           
                |  |  |   | |  | | |   __   |  |    \   |  |\   \          
                \     /   | |  | | |  |  |  |  | |\  \  |  | \   \       
                 \___/    |_|  |_| |__|  |__|  |_| \__\ |__|  \__/        
                                                                              
                      - O R C A' S   B I G   F R I E N D -                    
                                      &                                       
                       - I N T E G R A L  F E E D E R -                       
                                                                              
 v1 FN, 2020, v2 2021, v3 2022-2024                                           
------------------------------------------------------------------------------


----------------------
SHARK INTEGRAL PACKAGE
----------------------

Number of atoms                             ...      4
Number of basis functions                   ...    100
Number of shells                            ...     44
Maximum angular momentum                    ...      3
Integral batch strategy                     ... SHARK/LIBINT Hybrid
RI-J (if used) integral strategy            ... SPLIT-RIJ (Revised 2003 algorithm where possible)
Printlevel                                  ...      1
Contraction scheme used                     ... PARTIAL GENERAL contraction
Prescreening option                         ... SCHWARTZ
   Thresh                                   ... 1.000e-10
   Tcut                                     ... 1.000e-11
   Tpresel                                  ... 1.000e-11 
Coulomb Range Separation                    ... NOT USED
Exchange Range Separation                   ... NOT USED
Multipole approximations                    ... NOT USED
Finite Nucleus Model                        ... NOT USED
CABS basis                                  ... NOT available
Auxiliary Coulomb fitting basis             ... AVAILABLE
   # of basis functions in Aux-J            ...    120
   # of shells in Aux-J                     ...     40
   Maximum angular momentum in Aux-J        ...      4
Auxiliary J/K fitting basis                 ... NOT available
Auxiliary Correlation fitting basis         ... NOT available
Auxiliary 'external' fitting basis          ... NOT available

Checking pre-screening integrals            ... done (  0.0 sec) Dimension = 44
Save PGC pre-screening integrals            ... done (  0.0 sec) Dimension = 44
Calculate PGC overlap integrals             ... done (  0.0 sec) Dimension = 32
Calculating pre-screening integrals (ORCA)  ... done (  0.0 sec) Dimension = 32
Check shell pair data                       ... done (  0.0 sec)
Shell pair information
Shell pair cut-off parameter TPreSel        ...   1.0e-11
Total number of shell pairs                 ...       990
Shell pairs after pre-screening             ...       950
Total number of primitive shell pairs       ...      1390
Primitive shell pairs kept                  ...      1275
          la=0 lb=0:    311 shell pairs
          la=1 lb=0:    260 shell pairs
          la=1 lb=1:     55 shell pairs
          la=2 lb=0:    156 shell pairs
          la=2 lb=1:     60 shell pairs
          la=2 lb=2:     21 shell pairs
          la=3 lb=0:     52 shell pairs
          la=3 lb=1:     20 shell pairs
          la=3 lb=2:     12 shell pairs
          la=3 lb=3:      3 shell pairs

Calculating one electron integrals          ... done (  0.0 sec)
Calculating RI/J V-Matrix + Cholesky decomp.... done (  0.0 sec)
Calculating Nuclear repulsion               ... done (  0.0 sec) ENN=     31.390560213384 Eh

Diagonalization of the overlap matrix:
Smallest eigenvalue                        ... 2.198e-03
Time for diagonalization                   ...    0.002 sec
Threshold for overlap eigenvalues          ... 1.000e-07
Number of eigenvalues below threshold      ... 0
Time for construction of square roots      ...    0.000 sec
Total time needed                          ...    0.002 sec

-------------------
DFT GRID GENERATION
-------------------

General Integration Accuracy     IntAcc      ... 4.388
Radial Grid Type                 RadialGrid  ... OptM3 with GC (2021)
Angular Grid (max. ang.)         AngularGrid ... 4 (Lebedev-302)
Angular grid pruning method      GridPruning ... 4 (adaptive)
Weight generation scheme         WeightScheme... mBecke (2022)
Basis function cutoff            BFCut       ... 1.0000e-10
Integration weight cutoff        WCut        ... 1.0000e-14
Partially contracted basis set               ... off
Rotationally invariant grid construction     ... off
Angular grids for H and He will be reduced by one unit

Total number of grid points                  ...    18835
Total number of batches                      ...      296
Average number of points per batch           ...       63
Average number of grid points per atom       ...     4709

---------------------
SHARK GRID GENERATION
---------------------

General Integration Accuracy     IntAcc      ... 4.388
Radial Grid Type                 RadialGrid  ... OptM3 with GC (2021)
Angular Grid (max. ang.)         AngularGrid ... 4 (Lebedev-302)
Angular grid pruning method      GridPruning ... 4 (adaptive)
Weight generation scheme         WeightScheme... mBecke (2022)
Basis function cutoff            BFCut       ... 1.0000e-10
Integration weight cutoff        WCut        ... 1.0000e-14
Partially contracted basis set               ... off
Rotationally invariant grid construction     ... off
Angular grids for H and He will be reduced by one unit
Steep s-basis detected: some atoms will have their radial
                        grid points doubled.

Total number of grid points                  ...    31269
Total number of batches                      ...      491
Average number of points per batch           ...       63
Average number of grid points per atom       ...     7817

--------------------
COSX GRID GENERATION
--------------------

GRIDX 1
-------
General Integration Accuracy     IntAcc      ... 3.816
Radial Grid Type                 RadialGrid  ... OptM3 with GC (2021)
Angular Grid (max. ang.)         AngularGrid ... 1 (Lebedev-50)
Angular grid pruning method      GridPruning ... 4 (adaptive)
Weight generation scheme         WeightScheme... mBecke (2022)
Basis function cutoff            BFCut       ... 1.0000e-10
Integration weight cutoff        WCut        ... 1.0000e-14
Partially contracted basis set               ... on
Rotationally invariant grid construction     ... off
Angular grids for H and He will be reduced by one unit

Total number of grid points                  ...     2416
Total number of batches                      ...       22
Average number of points per batch           ...      109
Average number of grid points per atom       ...      604
UseSFitting                                  ... on

GRIDX 2
-------
General Integration Accuracy     IntAcc      ... 4.020
Radial Grid Type                 RadialGrid  ... OptM3 with GC (2021)
Angular Grid (max. ang.)         AngularGrid ... 2 (Lebedev-110)
Angular grid pruning method      GridPruning ... 4 (adaptive)
Weight generation scheme         WeightScheme... mBecke (2022)
Basis function cutoff            BFCut       ... 1.0000e-10
Integration weight cutoff        WCut        ... 1.0000e-14
Partially contracted basis set               ... on
Rotationally invariant grid construction     ... off
Angular grids for H and He will be reduced by one unit

Total number of grid points                  ...     5362
Total number of batches                      ...       44
Average number of points per batch           ...      121
Average number of grid points per atom       ...     1340
UseSFitting                                  ... on

GRIDX 3
-------
General Integration Accuracy     IntAcc      ... 4.338
Radial Grid Type                 RadialGrid  ... OptM3 with GC (2021)
Angular Grid (max. ang.)         AngularGrid ... 3 (Lebedev-194)
Angular grid pruning method      GridPruning ... 4 (adaptive)
Weight generation scheme         WeightScheme... mBecke (2022)
Basis function cutoff            BFCut       ... 1.0000e-10
Integration weight cutoff        WCut        ... 1.0000e-14
Partially contracted basis set               ... on
Rotationally invariant grid construction     ... off
Angular grids for H and He will be reduced by one unit

Total number of grid points                  ...    11891
Total number of batches                      ...       94
Average number of points per batch           ...      126
Average number of grid points per atom       ...     2973
UseSFitting                                  ... on
Initializing property integral containers    ... done (  0.0 sec)

SHARK setup successfully completed in   0.3 seconds

Maximum memory used throughout the entire STARTUP-calculation: 19.4 MB
-------------------------------------------------------------------------------
                                 ORCA GUESS
                   Start orbitals & Density for SCF / CASSCF
-------------------------------------------------------------------------------

------------
SCF SETTINGS
------------
Hamiltonian:
 Density Functional     Method          .... DFT(GTOs)
 Exchange Functional    Exchange        .... B88
   X-Alpha parameter    XAlpha          ....  0.666667
   Becke's b parameter  XBeta           ....  0.004200
 Correlation Functional Correlation     .... LYP
 LDA part of GGA corr.  LDAOpt          .... VWN-5
 Gradients option       PostSCFGGA      .... off
 Hybrid DFT is turned on
   Fraction HF Exchange ScalHFX         ....  0.200000
   Scaling of DF-GGA-X  ScalDFX         ....  0.720000
   Scaling of DF-GGA-C  ScalDFC         ....  0.810000
   Scaling of DF-LDA-C  ScalLDAC        ....  1.000000
   Perturbative correction              ....  0.000000
   NL short-range parameter             ....  4.800000
 RI-approximation to the Coulomb term is turned on
   Number of AuxJ basis functions       .... 120
   RIJ-COSX (HFX calculated with COS-X)).... on


General Settings:
 Integral files         IntName         .... H2CO_m
 Hartree-Fock type      HFTyp           .... UHF
 Total Charge           Charge          ....    1
 Multiplicity           Mult            ....    2
 Number of Electrons    NEL             ....   15
 Basis Dimension        Dim             ....   88
 Nuclear Repulsion      ENuc            ....     31.3905602134 Eh

Convergence Acceleration:
 AO-DIIS                CNVDIIS         .... on
   Start iteration      DIISMaxIt       ....    12
   Startup error        DIISStart       ....  0.200000
   # of expansion vecs  DIISMaxEq       ....     5
   Bias factor          DIISBfac        ....   1.050
   Max. coefficient     DIISMaxC        ....  10.000
 MO-DIIS                CNVKDIIS        .... off
 Trust-Rad. Augm. Hess. CNVTRAH         .... auto
   Auto Start mean grad. ratio tolernc. ....  1.125000
   Auto Start start iteration           ....    50
   Auto Start num. interpolation iter.  ....    10
   Max. Number of Micro iterations      ....    24
   Max. Number of Macro iterations      .... Maxiter - #DIIS iter
   Number of Davidson start vectors     ....     2
   Converg. threshold    (grad. norm)   ....   5.000e-05
   Grad. Scal. Fac. for Micro threshold ....   0.100
   Minimum threshold for Micro iter.    ....   1.000e-02
   NR start threshold (gradient norm)   ....   1.000e-04
   Initial trust radius                 ....   0.400
   Minimum AH scaling param. (alpha)    ....   1.000
   Maximum AH scaling param. (alpha)    .... 1000.000
   Quad. conv. algorithm                .... NR
   White noise on init. David. guess    .... on
   Maximum white noise                  ....   0.010
   Pseudo random numbers                .... off
   Inactive MOs                         .... canonical
   Orbital update algorithm             .... Taylor
   Preconditioner                       .... Diag
   Full preconditioner red. dimension   ....   250
 SOSCF                  CNVSOSCF        .... on
   Start iteration      SOSCFMaxIt      ....   150
   Startup grad/error   SOSCFStart      ....  0.003300
   Hessian update       SOSCFHessUp     .... L-BFGS
 Level Shifting         CNVShift        .... on
   Level shift para.    LevelShift      ....    0.2500
   Turn off err/grad.   ShiftErr        ....    0.0010
 Zerner damping         CNVZerner       .... off
 Static damping         CNVDamp         .... on
   Fraction old density DampFac         ....    0.7000
   Max. Damping (<1)    DampMax         ....    0.9800
   Min. Damping (>=0)   DampMin         ....    0.0000
   Turn off err/grad.   DampErr         ....    0.1000

SCF Procedure:
 Maximum # iterations   MaxIter         ....   100
 SCF integral mode      SCFMode         .... Direct
   Integral package                     .... SHARK and LIBINT hybrid scheme
 Reset frequency        DirectResetFreq ....    20
 Integral Threshold     Thresh          ....  1.000e-10 Eh
 Primitive CutOff       TCut            ....  1.000e-11 Eh

Convergence Tolerance:
 Convergence Check Mode ConvCheckMode   .... Total+1el-Energy
 Convergence forced     ConvForced      .... 0
 Energy Change          TolE            ....  1.000e-06 Eh
 1-El. energy change                    ....  1.000e-03 Eh
 Orbital Gradient       TolG            ....  5.000e-05
 Orbital Rotation angle TolX            ....  5.000e-05
 DIIS Error             TolErr          ....  1.000e-06

------------------------------
INITIAL GUESS: MODEL POTENTIAL
------------------------------
Loading Hartree-Fock densities                     ... done
Calculating cut-offs                               ... done
Initializing the effective Hamiltonian             ... done
Setting up the integral package (SHARK)            ... done
Starting the Coulomb interaction                   ... done (   0.0 sec)
Making the grid                                    ... done (   0.0 sec)
Mapping shells                                     ... done
Starting the XC term evaluation                    ... done (   0.0 sec)
  promolecular density results
     # of electrons  =     15.999113350
     EX              =    -13.885366277
     EC              =     -0.536411628
     EX+EC           =    -14.421777905
Transforming the Hamiltonian                       ... done (   0.0 sec)
Diagonalizing the Hamiltonian                      ... done (   0.0 sec)
Back transforming the eigenvectors                 ... done (   0.0 sec)
Now organizing SCF variables                       ... done
                      ------------------
                      INITIAL GUESS DONE (   0.0 sec)
                      ------------------
             **** ENERGY FILE WAS UPDATED (H2CO_m.en.tmp) ****
Finished Guess after   0.1 sec
Maximum memory used throughout the entire GUESS-calculation: 8.7 MB

-------------------------------------------------------------------------------------------
                                      ORCA LEAN-SCF
                              memory conserving SCF solver
-------------------------------------------------------------------------------------------

----------------------------------------D-I-I-S--------------------------------------------
Iteration    Energy (Eh)           Delta-E    RMSDP     MaxDP     DIISErr   Damp  Time(sec)
-------------------------------------------------------------------------------------------
               ***  Starting incremental Fock matrix formation  ***
    1    -114.0763442219103609     0.00e+00  4.69e-04  7.02e-03  7.71e-02  0.700   0.3
    2    -114.0838994162080127    -7.56e-03  3.53e-04  5.39e-03  3.95e-02  0.700   0.2
                               ***Turning on AO-DIIS***
    3    -114.0868315848727406    -2.93e-03  2.58e-04  3.94e-03  1.96e-02  0.700   0.2
    4    -114.0891701216890937    -2.34e-03  6.89e-04  1.17e-02  1.47e-02  0.000   0.2
    5    -114.0953970632313457    -6.23e-03  9.55e-05  1.99e-03  6.15e-03  0.000   0.2
                              *** Initializing SOSCF ***
---------------------------------------S-O-S-C-F--------------------------------------
Iteration    Energy (Eh)           Delta-E    RMSDP     MaxDP     MaxGrad    Time(sec)
--------------------------------------------------------------------------------------
    6    -114.0955718003223609    -1.75e-04  5.84e-05  1.39e-03  2.91e-03     0.2
               *** Restarting incremental Fock matrix formation ***
    7    -114.0956402288264400    -6.84e-05  4.46e-05  9.83e-04  1.86e-03     0.2
    8    -114.0956639963313108    -2.38e-05  7.35e-05  2.43e-03  1.77e-03     0.2
    9    -114.0956623117636894     1.68e-06  3.31e-05  9.85e-04  2.08e-03     0.2
   10    -114.0956754019681654    -1.31e-05  5.98e-06  1.18e-04  1.34e-04     0.2
   11    -114.0956756344991305    -2.33e-07  2.88e-06  6.99e-05  8.32e-05     0.2
                 **** Energy Check signals convergence ****

               *****************************************************
               *                     SUCCESS                       *
               *           SCF CONVERGED AFTER  11 CYCLES          *
               *****************************************************

Recomputing exchange energy using gridx3       ... done (    0.328 sec)
Old exchange energy                            :     -2.745811666 Eh
New exchange energy                            :     -2.745785763 Eh
Exchange energy change after final integration :      0.000025902 Eh
Total energy after final integration           :   -114.095649732 Eh
             **** ENERGY FILE WAS UPDATED (H2CO_m.en.tmp) ****

----------------
TOTAL SCF ENERGY
----------------

Total Energy       :       -114.09564973218423 Eh           -3104.70047 eV

Components:
Nuclear Repulsion  :         31.39056021338444 Eh             854.18057 eV
Electronic Energy  :       -145.48623584788356 Eh           -3958.88174 eV
One Electron Energy:       -211.68147239412562 Eh           -5760.14570 eV
Two Electron Energy:         66.19523654624207 Eh            1801.26396 eV

Virial components:
Potential Energy   :       -227.54152629368295 Eh           -6191.71971 eV
Kinetic Energy     :        113.44587656149872 Eh            3087.01924 eV
Virial Ratio       :          2.00572760500760

DFT components:
N(Alpha)           :        8.000001881545 electrons
N(Beta)            :        7.000000788722 electrons
N(Total)           :       15.000002670267 electrons
E(X)               :      -10.941960229454 Eh       
E(C)               :       -0.599303403676 Eh       
E(XC)              :      -11.541263633130 Eh       

---------------
SCF CONVERGENCE
---------------

  Last Energy change         ...    2.3253e-07  Tolerance :   1.0000e-06
  Last MAX-Density change    ...    6.9927e-05  Tolerance :   1.0000e-05
  Last RMS-Density change    ...    2.8822e-06  Tolerance :   1.0000e-06
  Last DIIS Error            ...    2.9148e-03  Tolerance :   1.0000e-06
  Last Orbital Gradient      ...    8.3199e-05  Tolerance :   5.0000e-05
  Last Orbital Rotation      ...    2.4916e-04  Tolerance :   5.0000e-05


----------------------
UHF SPIN CONTAMINATION
----------------------

Warning: in a DFT calculation there is little theoretical justification to 
         calculate <S**2> as in Hartree-Fock theory. We will do it anyways
         but you should keep in mind that the values have only limited relevance

Expectation value of <S**2>     :     0.758198
Ideal value S*(S+1) for S=0.5   :     0.750000
Deviation                       :     0.008198

----------------
ORBITAL ENERGIES
----------------
                 SPIN UP ORBITALS
  NO   OCC          E(Eh)            E(eV) 
   0   1.0000     -19.607183      -533.5386 
   1   1.0000     -10.634977      -289.3924 
   2   1.0000      -1.489895       -40.5421 
   3   1.0000      -0.996296       -27.1106 
   4   1.0000      -0.889632       -24.2081 
   5   1.0000      -0.846554       -23.0359 
   6   1.0000      -0.791773       -21.5452 
   7   1.0000      -0.694186       -18.8898 
   8   0.0000      -0.394941       -10.7469 
   9   0.0000      -0.194927        -5.3042 
  10   0.0000      -0.137177        -3.7328 
  11   0.0000      -0.132032        -3.5928 
  12   0.0000       0.006233         0.1696 
  13   0.0000       0.019593         0.5332 
  14   0.0000       0.045343         1.2338 
  15   0.0000       0.155714         4.2372 
  16   0.0000       0.159925         4.3518 
  17   0.0000       0.192147         5.2286 
  18   0.0000       0.218412         5.9433 

                 SPIN DOWN ORBITALS
  NO   OCC          E(Eh)            E(eV) 
   0   1.0000     -19.583834      -532.9032 
   1   1.0000     -10.636650      -289.4380 
   2   1.0000      -1.444183       -39.2982 
   3   1.0000      -0.970958       -26.4211 
   4   1.0000      -0.825230       -22.4556 
   5   1.0000      -0.821855       -22.3638 
   6   1.0000      -0.772184       -21.0122 
   7   0.0000      -0.516658       -14.0590 
   8   0.0000      -0.389897       -10.6096 
   9   0.0000      -0.187365        -5.0985 
  10   0.0000      -0.126287        -3.4364 
  11   0.0000      -0.125610        -3.4180 
  12   0.0000       0.016965         0.4616 
  13   0.0000       0.019271         0.5244 
  14   0.0000       0.068464         1.8630 
  15   0.0000       0.167646         4.5619 
  16   0.0000       0.168321         4.5802 
  17   0.0000       0.196491         5.3468 
*Only the first 10 virtual orbitals were printed.

                    ********************************
                    * MULLIKEN POPULATION ANALYSIS *
                    ********************************

--------------------------------------------
MULLIKEN ATOMIC CHARGES AND SPIN POPULATIONS
--------------------------------------------
   0 C :    0.280071   -0.081740
   1 O :    0.215354    0.815544
   2 H :    0.252288    0.133098
   3 H :    0.252287    0.133098
Sum of atomic charges         :    1.0000000
Sum of atomic spin populations:    1.0000000

-----------------------------------------------------
MULLIKEN REDUCED ORBITAL CHARGES AND SPIN POPULATIONS
-----------------------------------------------------
CHARGE
  0 C s       :     3.277718  s :     3.277718
      pz      :     0.532777  p :     2.326504
      px      :     0.773092
      py      :     1.020634
      dz2     :     0.009367  d :     0.103038
      dxz     :     0.035036
      dyz     :     0.000000
      dx2y2   :     0.021736
      dxy     :     0.036899
      f0      :     0.002128  f :     0.012670
      f+1     :     0.000956
      f-1     :     0.000421
      f+2     :     0.002726
      f-2     :     0.000000
      f+3     :     0.003046
      f-3     :     0.003393

  1 O s       :     3.817643  s :     3.817643
      pz      :     1.404805  p :     3.927855
      px      :     1.387494
      py      :     1.135557
      dz2     :     0.003322  d :     0.036904
      dxz     :     0.012460
      dyz     :     0.000000
      dx2y2   :     0.010778
      dxy     :     0.010343
      f0      :     0.000280  f :     0.002243
      f+1     :     0.000320
      f-1     :     0.000047
      f+2     :     0.000400
      f-2     :     0.000000
      f+3     :     0.000477
      f-3     :     0.000718

  2 H s       :     0.712881  s :     0.712881
      pz      :     0.004337  p :     0.032206
      px      :     0.009068
      py      :     0.018801
      dz2     :     0.000289  d :     0.002625
      dxz     :     0.000135
      dyz     :     0.000222
      dx2y2   :     0.000998
      dxy     :     0.000981

  3 H s       :     0.712882  s :     0.712882
      pz      :     0.004337  p :     0.032206
      px      :     0.009068
      py      :     0.018801
      dz2     :     0.000289  d :     0.002625
      dxz     :     0.000135
      dyz     :     0.000222
      dx2y2   :     0.000998
      dxy     :     0.000981


SPIN
  0 C s       :    -0.033176  s :    -0.033176
      pz      :    -0.053997  p :    -0.087613
      px      :    -0.029086
      py      :    -0.004531
      dz2     :     0.000268  d :     0.036874
      dxz     :    -0.000364
      dyz     :     0.000000
      dx2y2   :     0.000268
      dxy     :     0.036701
      f0      :     0.000053  f :     0.002175
      f+1     :     0.000027
      f-1     :     0.000046
      f+2     :    -0.000054
      f-2     :     0.000000
      f+3     :     0.000379
      f-3     :     0.001725

  1 O s       :     0.016689  s :     0.016689
      pz      :     0.055521  p :     0.800714
      px      :     0.008489
      py      :     0.736705
      dz2     :    -0.000079  d :    -0.001342
      dxz     :    -0.000475
      dyz     :    -0.000000
      dx2y2   :     0.000012
      dxy     :    -0.000800
      f0      :     0.000103  f :    -0.000518
      f+1     :     0.000034
      f-1     :     0.000034
      f+2     :    -0.000234
      f-2     :    -0.000000
      f+3     :    -0.000267
      f-3     :    -0.000188

  2 H s       :     0.133918  s :     0.133918
      pz      :    -0.000259  p :    -0.000818
      px      :    -0.000382
      py      :    -0.000176
      dz2     :    -0.000023  d :    -0.000003
      dxz     :    -0.000005
      dyz     :    -0.000012
      dx2y2   :     0.000001
      dxy     :     0.000037

  3 H s       :     0.133918  s :     0.133918
      pz      :    -0.000259  p :    -0.000818
      px      :    -0.000382
      py      :    -0.000176
      dz2     :    -0.000023  d :    -0.000003
      dxz     :    -0.000005
      dyz     :    -0.000012
      dx2y2   :     0.000001
      dxy     :     0.000037



                     *******************************
                     * LOEWDIN POPULATION ANALYSIS *
                     *******************************

-------------------------------------------
LOEWDIN ATOMIC CHARGES AND SPIN POPULATIONS
-------------------------------------------
   0 C :    0.237889    0.122232
   1 O :    0.626838    0.716064
   2 H :    0.067636    0.080852
   3 H :    0.067636    0.080852

----------------------------------------------------
LOEWDIN REDUCED ORBITAL CHARGES AND SPIN POPULATIONS
----------------------------------------------------
CHARGE
  0 C s       :     2.805747  s :     2.805747
      pz      :     0.522803  p :     2.479137
      px      :     0.949637
      py      :     1.006697
      dz2     :     0.036232  d :     0.394970
      dxz     :     0.088223
      dyz     :     0.000000
      dx2y2   :     0.133493
      dxy     :     0.137022
      f0      :     0.007084  f :     0.082257
      f+1     :     0.010752
      f-1     :     0.002734
      f+2     :     0.017548
      f-2     :     0.000000
      f+3     :     0.018158
      f-3     :     0.025981

  1 O s       :     3.411051  s :     3.411051
      pz      :     1.310807  p :     3.885775
      px      :     1.509964
      py      :     1.065003
      dz2     :     0.008048  d :     0.070784
      dxz     :     0.010670
      dyz     :     0.000000
      dx2y2   :     0.025540
      dxy     :     0.026526
      f0      :     0.000325  f :     0.005551
      f+1     :     0.000804
      f-1     :     0.000136
      f+2     :     0.000481
      f-2     :     0.000000
      f+3     :     0.001396
      f-3     :     0.002410

  2 H s       :     0.763509  s :     0.763509
      pz      :     0.016580  p :     0.143412
      px      :     0.043769
      py      :     0.083063
      dz2     :     0.003143  d :     0.025442
      dxz     :     0.001656
      dyz     :     0.002792
      dx2y2   :     0.008367
      dxy     :     0.009484

  3 H s       :     0.763509  s :     0.763509
      pz      :     0.016580  p :     0.143412
      px      :     0.043769
      py      :     0.083063
      dz2     :     0.003143  d :     0.025442
      dxz     :     0.001656
      dyz     :     0.002792
      dx2y2   :     0.008367
      dxy     :     0.009484


SPIN
  0 C s       :    -0.010689  s :    -0.010689
      pz      :    -0.045042  p :    -0.032469
      px      :    -0.015657
      py      :     0.028230
      dz2     :     0.001644  d :     0.143477
      dxz     :     0.002722
      dyz     :     0.000000
      dx2y2   :     0.002452
      dxy     :     0.136660
      f0      :     0.000759  f :     0.021913
      f+1     :     0.000636
      f-1     :     0.000543
      f+2     :     0.000876
      f-2     :     0.000000
      f+3     :     0.000807
      f-3     :     0.018291

  1 O s       :     0.008460  s :     0.008460
      pz      :     0.046917  p :     0.706450
      px      :     0.004065
      py      :     0.655467
      dz2     :    -0.000239  d :     0.001232
      dxz     :    -0.001511
      dyz     :     0.000000
      dx2y2   :    -0.000042
      dxy     :     0.003024
      f0      :     0.000012  f :    -0.000078
      f+1     :     0.000006
      f-1     :     0.000033
      f+2     :    -0.000213
      f-2     :     0.000000
      f+3     :    -0.000246
      f-3     :     0.000329

  2 H s       :     0.088658  s :     0.088658
      pz      :    -0.001757  p :    -0.006667
      px      :    -0.002650
      py      :    -0.002260
      dz2     :    -0.000142  d :    -0.001139
      dxz     :    -0.000164
      dyz     :    -0.000339
      dx2y2   :    -0.000295
      dxy     :    -0.000199

  3 H s       :     0.088658  s :     0.088658
      pz      :    -0.001757  p :    -0.006667
      px      :    -0.002650
      py      :    -0.002260
      dz2     :    -0.000142  d :    -0.001139
      dxz     :    -0.000164
      dyz     :    -0.000339
      dx2y2   :    -0.000295
      dxy     :    -0.000199



                      *****************************
                      * MAYER POPULATION ANALYSIS *
                      *****************************

  NA   - Mulliken gross atomic population
  ZA   - Total nuclear charge
  QA   - Mulliken gross atomic charge
  VA   - Mayer's total valence
  BVA  - Mayer's bonded valence
  FA   - Mayer's free valence

  ATOM       NA         ZA         QA         VA         BVA        FA
  0 C      5.7199     6.0000     0.2801     3.7132     3.6971     0.0161
  1 O      7.7846     8.0000     0.2154     2.7304     2.1761     0.5543
  2 H      0.7477     1.0000     0.2523     0.9338     0.9157     0.0180
  3 H      0.7477     1.0000     0.2523     0.9338     0.9157     0.0180

  Mayer bond orders larger than 0.100000
B(  0-C ,  1-O ) :   2.0294 B(  0-C ,  2-H ) :   0.8339 B(  0-C ,  3-H ) :   0.8339 


-------
TIMINGS
-------

Total SCF time: 0 days 0 hours 0 min 2 sec 

Total time                  ....       2.616 sec
Sum of individual times     ....       2.610 sec  ( 99.8%)

SCF preparation             ....       0.044 sec  (  1.7%)
Fock matrix formation       ....       2.535 sec  ( 96.9%)
  Startup                   ....       0.001 sec  (  0.0% of F)
  Split-RI-J                ....       0.103 sec  (  4.1% of F)
  Chain of spheres X        ....       1.657 sec  ( 65.4% of F)
  XC integration            ....       0.759 sec  ( 30.0% of F)
    XC Preparation          ....       0.000 sec  (  0.0% of XC)
    Basis function eval.    ....       0.184 sec  ( 24.3% of XC)
    Density eval.           ....       0.176 sec  ( 23.1% of XC)
    XC-Functional eval.     ....       0.046 sec  (  6.0% of XC)
    XC-Potential eval.      ....       0.313 sec  ( 41.3% of XC)
Diagonalization             ....       0.000 sec  (  0.0%)
Density matrix formation    ....       0.005 sec  (  0.2%)
Total Energy calculation    ....       0.001 sec  (  0.0%)
Population analysis         ....       0.003 sec  (  0.1%)
Orbital Transformation      ....       0.005 sec  (  0.2%)
Orbital Orthonormalization  ....       0.000 sec  (  0.0%)
DIIS solution               ....       0.013 sec  (  0.5%)
SOSCF solution              ....       0.005 sec  (  0.2%)
Finished LeanSCF after   2.6 sec

Maximum memory used throughout the entire LEANSCF-calculation: 9.5 MB

-------------------------   --------------------
FINAL SINGLE POINT ENERGY      -114.095649732184
-------------------------   --------------------


------------------------------------------------------------------------------
                              ORCA PROPERTY CALCULATIONS
------------------------------------------------------------------------------

GBWName                                 ... H2CO_m.gbw
Number of atoms                         ...      4
Number of basis functions               ...    100
Max core memory                         ...   1024 MB

Electric properties:
Dipole moment                           ... YES
Quadrupole moment                       ...  NO
Static polarizability (Dipole/Dipole)   ...  NO
Static polarizability (Dipole/Quad.)    ...  NO
Static polarizability (Quad./Quad.)     ...  NO
Static polarizability (Velocity)        ...  NO

Atomic electric properties:
Dipole moment                           ...  NO
Quadrupole moment                       ...  NO
Static polarizability                   ...  NO

Choice of electric origin               ... Center of mass
Position of electric origin             ...     0.323355    -2.023819    -0.000007

General magnetic properties:
Magnetizability                         ...  NO

EPR properties:
g-Tensor (aka g-matrix)                 ...  NO
Zero-Field splitting spin-orbit         ...  NO
Zero-field splitting spin-spin          ...  NO
Hyperfine couplings                     ...  NO (   0 nuclei)
Quadrupole couplings                    ...  NO (   0 nuclei)
Contact density                         ...  NO (   0 nuclei)

NMR properties:
Chemical shifts                         ...  NO (   0 nuclei)
Spin-rotation constants                 ...  NO (   0 nuclei)
Spin-spin couplings                     ...  NO (   0 nuclei,    0 pairs)

Choice of magnetic origin               ... GIAO
Position of magnetic origin             ...     0.000000     0.000000     0.000000

Properties with geometric perturbations:
SCF Hessian                             ...  NO
IR spectrum                             ...  NO
VCD spectrum                            ...  NO
X-ray spectroscopy properties:
SCF XES/XAS/RIXS spectra                ...  NO


-------------
DIPOLE MOMENT
-------------

Method             : SCF
Type of density    : Electron Density
Multiplicity       :   2
Irrep              :   0
Energy             :  -114.0956497321842278 Eh
Relativity type    : 
Basis              : AO
                                X                 Y                 Z
Electronic contribution:      0.835313503      -0.000000011      -0.000018987
Nuclear contribution   :     -2.220467621      -0.000000096       0.000050506
                        -----------------------------------------
Total Dipole Moment    :     -1.385154119      -0.000000107       0.000031518
                        -----------------------------------------
Magnitude (a.u.)       :      1.385154119
Magnitude (Debye)      :      3.520781970



--------------------
Rotational spectrum 
--------------------
 
Rotational constants in cm-1:             9.512746             1.304810             1.147424 
Rotational constants in MHz :        285184.948015         39117.227378         34398.919597 

Dipole components along the rotational axes: 
x,y,z [a.u.] :    -1.385154     0.000000     0.000000 
x,y,z [Debye]:    -3.520782     0.000000     0.000000 

 

Dipole moment calculation done in   0.0 sec 

Maximum memory used throughout the entire PROP-calculation: 5.6 MB

--------------------------------
SUGGESTED CITATIONS FOR THIS RUN
--------------------------------

Below you find a list of papers that are relevant to this ORCA run
We neither can nor want to force you to cite these papers, but we appreciate if you do
You receive ORCA, which is the product of decades of hard work by many enthusiastic individuals, for free
The only thing we kindly ask in return is that you cite our papers,
We deeply appreciate it, if you show your appreciation for ORCA by not just citing the generic ORCA reference.

Please note that relegating all ORCA citations to the supporting information does *not* help us.
SI sections are not indexed - citations you put there will not count into any citation statistics
But we need these citations in order to attract the funding resources that allow us to do what we are doing

Therefore, if you are a happy ORCA user, please consider citing a few of the papers listed below in the main body of your paper

In addition to the list printed below, the program has created the file H2CO_m.bibtex that contains the list in bibtex format
You can import this file easily into all common literature databanks and citation aid programs


List of essential papers. We consider these as the minimum necessary citations

  1. Neese,F.
     Software update: the ORCA program system, version 5.0
     WIRES Comput. Molec. Sci., 2022 12(1)e1606
     doi.org/10.1002/wcms.1606

List of papers to cite with high priority. The work reported in these papers was absolutely
necessary for this run to complete.
Our perspective: the developers of density functionals and basis sets usually get cited in chemistry papers
Good! But without the algorithms to do something with them, the functionals or basis sets would not do anything.
Hence, in our opinion, the algorithm design and method developments papers are equally worthy of getting cited

  1. Neese,F.
     An improvement of the resolution of the identity approximation for the formation of the Coulomb matrix
     J. Comp. Chem., 2003 24(14)1740-1747
     doi.org/10.1002/jcc.10318
  2. Neese,F.; Wennmohs,F.; Hansen,A.; Becker,U.
     Efficient, approximate and parallel Hartree-Fock and hybrid DFT calculations. A 'chain-of-spheres' algorithm for the Hartree-Fock exchange
     Chem. Phys., 2009 356(1-3)98-109
     doi.org/10.1016/j.chemphys.2008.10.036
  3. Helmich-Paris,B.; de Souza,B.; Neese,F.; Izsák,R.
     An improved chain of spheres for exchange algorithm
     J. Chem. Phys., 2021 155 104109
     doi.org/doi: 10.1063/5.0058766.
  4. Neese,F.
     The SHARK Integral Generation and Digestion System
     J. Comp. Chem., 2022  1-16
     doi.org/10.1002/jcc.26942

List of suggested additional citations. These are papers that are important in the 'surrounding' of 
of this run, or papers that preceded the highly important papers. If you like your results we are grateful for a citation.

  1. Izsak,R.; Neese,F.
     An overlap fitted chain of spheres exchange method
     J. Chem. Phys., 2011 135 144105
     doi.org/10.1063/1.3646921
  2. Izsak,R.; Hansen,A.; Neese,F.
     The resolution of identity and chain of spheres approximations for the LPNO-CCSD singles Fock term
     Molec. Phys., 2012 110 2413-2417
     doi.org/10.1080/00268976.2012.687466
  3. Neese,F.
     The ORCA program system
     WIRES Comput. Molec. Sci., 2012 2(1)73-78
     doi.org/10.1002/wcms.81
  4. Izsak,R.; Neese,F.; Klopper,W.
     Robust fitting techniques in the chain of spheres approximation to the Fock exchange: The role of the complementary space
     J. Chem. Phys., 2013 139 
     doi.org/10.1063/1.4819264
  5. Neese,F.
     Software update: the ORCA program system, version 4.0
     WIRES Comput. Molec. Sci., 2018 8(1)1-6
     doi.org/10.1002/wcms.1327
  6. Neese,F.; Wennmohs,F.; Becker,U.; Riplinger,C.
     The ORCA quantum chemistry program package
     J. Chem. Phys., 2020 152 Art. No. L224108
     doi.org/10.1063/5.0004608

List of optional additional citations

  1. Neese,F.
     Approximate second-order SCF convergence for spin unrestricted wavefunctions
     Chem. Phys. Lett., 2000 325(1-3)93-98
     doi.org/10.1016/s0009-2614(00)00662-x

Timings for individual modules:

Sum of individual times          ...        3.118 sec (=   0.052 min)
Startup calculation              ...        0.363 sec (=   0.006 min)  11.6 %
SCF iterations                   ...        2.715 sec (=   0.045 min)  87.1 %
Property calculations            ...        0.041 sec (=   0.001 min)   1.3 %
                             ****ORCA TERMINATED NORMALLY****
TOTAL RUN TIME: 0 days 0 hours 0 minutes 3 seconds 232 msec
