
                                 *****************
                                 * O   R   C   A *
                                 *****************

                                            #,                                       
                                            ###                                      
                                            ####                                     
                                            #####                                    
                                            ######                                   
                                           ########,                                 
                                     ,,################,,,,,                         
                               ,,#################################,,                 
                          ,,##########################################,,             
                       ,#########################################, ''#####,          
                    ,#############################################,,   '####,        
                  ,##################################################,,,,####,       
                ,###########''''           ''''###############################       
              ,#####''   ,,,,##########,,,,          '''####'''          '####       
            ,##' ,,,,###########################,,,                        '##       
           ' ,,###''''                  '''############,,,                           
         ,,##''                                '''############,,,,        ,,,,,,###''
      ,#''                                            '''#######################'''  
     '                                                          ''''####''''         
             ,#######,   #######,   ,#######,      ##                                
            ,#'     '#,  ##    ##  ,#'     '#,    #''#        ,####,   ,####,        
            ##       ##  ##   ,#'  ##            #'  '#       #'       #'  '#        
            ##       ##  #######   ##           ,######,      #####,   #    #        
            '#,     ,#'  ##    ##  '#,     ,#' ,#      #,     #,   #   #,  ,#        
             '#######'   ##     ##  '#######'  #'      '#     '####' # '####'        



                #########################################################
                #                        -***-                          #
                #          Department of theory and spectroscopy        #
                #                                                       #
                #                      Frank Neese                      #
                #                                                       #
                #     Directorship, Architecture, Infrastructure        #
                #                    SHARK, DRIVERS                     #
                #        Core code/Algorithms in most modules           #
                #                                                       #
                #        Max Planck Institute fuer Kohlenforschung      #
                #                Kaiser Wilhelm Platz 1                 #
                #                 D-45470 Muelheim/Ruhr                 #
                #                      Germany                          #
                #                                                       #
                #                  All rights reserved                  #
                #                        -***-                          #
                #########################################################


                         Program Version 6.0.1  -  RELEASE   -


 With contributions from (in alphabetic order):
[Max-Planck-Institut fuer Kohlenforschung]                               
  Daniel Aravena         : Magnetic Suceptibility                        
  Michael Atanasov       : Ab Initio Ligand Field Theory (pilot matlab implementation)
  Alexander A. Auer      : GIAO ZORA, VPT2 properties, NMR spectrum      
  Ute Becker             : All parallelization in ORCA, NUMFREQ, NUMCALC 
  Giovanni Bistoni       : ED, misc. LED, open-shell LED, HFLD           
  Martin Brehm           : Molecular dynamics                            
  Dmytro Bykov           : pre 5.0 version of the SCF Hessian            
  Marcos Casanova-Páez   : Triplet and SCS-CIS(D). UHF-(DLPNO)-IP/EA/STEOM-CCSD. UHF-CVS-IP/STEOM-CCSD   
  Vijay G. Chilkuri      : MRCI spin determinant printing, contributions to CSF-ICE 
  Pauline Colinet        : FMM embedding                                 
  Dipayan Datta          : RHF DLPNO-CCSD density                        
  Achintya Kumar Dutta   : EOM-CC, STEOM-CC                              
  Nicolas Foglia         : Exact transition moments, OPA infrastructure, MCD improvements    
  Dmitry Ganyushin       : Spin-Orbit,Spin-Spin,Magnetic field MRCI      
  Miquel Garcia-Rates    : C-PCM and meta-GGA Hessian, CCSD/C-PCM, Gaussian charge scheme 
  Tiago L. C. Gouveia    : GS-ROHF, GS-ROCIS                             
  Yang Guo               : DLPNO-NEVPT2, F12-NEVPT2, CIM, IAO-localization        
  Andreas Hansen         : Spin unrestricted coupled pair/coupled cluster methods 
  Ingolf Harden          : AUTO-CI MPn and infrastructure                
  Benjamin Helmich-Paris : MC-RPA, TRAH-(SCF,CASSCF), AVAS, COSX integrals, SCF dyn. polar. 
  Lee Huntington         : MR-EOM, pCC                                   
  Robert Izsak           : Overlap fitted RIJCOSX, COSX-SCS-MP3, EOM     
  Riya Kayal             : Wick's Theorem for AUTO-CI, AUTO-CI UHF-CCSDT 
  Emily Kempfer          : AUTO-CI, RHF CISDT and CCSDT                  
  Christian Kollmar      : KDIIS, OOCD, Brueckner-CCSD(T), CCSD density, CASPT2, CASPT2-K, improved NEVPT2 
  Axel Koslowski         : Symmetry handling                             
  Simone Kossmann        : meta-GGA functionals, TD-DFT gradient, OOMP2, (MP2 Hessian; deprecated post 5.0) 
  Lucas Lang             : DCDCAS                                        
  Marvin Lechner         : AUTO-CI (C++ implementation), FIC-MRCC        
  Spencer Leger          : CASSCF response                               
  Dagmar Lenk            : GEPOL surface, SMD, ORCA-2-JSON               
  Dimitrios Liakos       : Extrapolation schemes; Compound Job, initial MDCI parallelization 
  Dimitrios Manganas     : Further ROCIS development; embedding schemes. LFT, Crystal Embedding 
  Dimitrios Pantazis     : SARC Basis sets                               
  Anastasios Papadopoulos: AUTO-CI, single reference methods and gradients 
  Taras Petrenko         : pre 6.0 DFT Hessian and TD-DFT gradient, (ASA, deprecated), ECA, 1-Electron XAS/XES, NRVS 
  Peter Pinski           : DLPNO-MP2, DLPNO-MP2 Gradient                 
  Christoph Reimann      : Effective Core Potentials                     
  Marius Retegan         : Local ZFS, SOC                                
  Christoph Riplinger    : Optimizer, TS searches, QM/MM, DLPNO-CCSD(T), (RO)-DLPNO pert. Triples 
  Michael Roemelt        : Original ROCIS implementation                 
  Masaaki Saitow         : Open-shell DLPNO-CCSD energy and density      
  Barbara Sandhoefer     : DKH picture change effects                    
  Kantharuban Sivalingam : CASSCF convergence/infrastructure, NEVPT2 and variants, FIC-MRCI 
  Bernardo de Souza      : ESD, SOC TD-DFT                               
  Georgi L. Stoychev     : AutoAux, RI-MP2 NMR, DLPNO-MP2 response, X2C  
  Van Anh Tran           : RI-MP2 g-tensors                              
  Willem Van den Heuvel  : Paramagnetic NMR                              
  Zikuan Wang            : NOTCH, Electric field optimization            
  Frank Wennmohs         : Technical directorship and infrastructure     
  Hang Xu                : AUTO-CI-Response properties                   
                                                                         
[FACCTs GmbH]                                                            
  Markus Bursch, Miquel Garcia-Rates, Christoph Riplinger, Bernardo de Souza, Georgi L. Stoychev 
                                                                 
  APM, Basis sets (HGBS, AHGBS, def-TZVP (Ac-Lr), def2-XVPD (La-Lu)), CI-OPT, improved COSX, DLPNO-Multilevel,           
  DOCKER, DRACO, updates on ESD, GOAT, IRC, LR-CPCM, MBIS, meta-GGA TD-DFT gradient, ML-optimized integration grids, 
  MM, NACMEs, nearIR, NEB, NEB-TS, NL-DFT gradient (VV10), 2- and 3-layer-ONIOM, interface openCOSMO-RS, QMMM,   
  Crystal-QMMM, SF, symmetry and pop. for TD-DFT, r2SCAN hybrids, SOLVATOR                                   
                                                                         
[Other institutions]                                                     
  V. Asgeirsson          : NEB                                           
  Christoph Bannwarth    : sTDA-DFT, sTD-DFT, PBEh-3c, B97-3c, D3        
  Sebastian Ehlert       : rSCAN, r2SCAN, r2SCAN-3c, D4, dhf basis sets  
  Marvin Friede          : D4 for Fr, Ra, Ac-Lr                          
  Lars Goerigk           : TD-DFT with DH, B97 family of functionals     
  Stefan Grimme          : VdW corrections, initial TS optimization, DFT functionals, gCP, sTDA/sTD-DF 
  Waldemar Hujo          : DFT-NL                                        
  H. Jonsson             : NEB                                           
  Holger Kruse           : gCP                                           
  Marcel Mueller         : wB97X-3c, vDZP basis set                      
  Hagen Neugebauer       : wr2SCAN                                       
  Tobias Risthaus        : range-separated hybrid DFT                    
  Lukas Wittmann         : regularized MP2, r2SCAN double-hybrids, wr2SCAN        
                                                                         
We gratefully acknowledge several colleagues who have allowed us to      
interface, adapt or use parts of their codes:                            
  Ed Valeev, F. Pavosevic, A. Kumar             : LibInt (2-el integral package), F12 methods 
  Garnet Chan, S. Sharma, J. Yang, R. Olivares  : DMRG                   
  Ulf Ekstrom                                   : XCFun DFT Library      
  Mihaly Kallay                                 : mrcc  (arbitrary order and MRCC methods)
  Frank Weinhold                                : gennbo (NPA and NBO analysis)           
  Simon Mueller                                 : openCOSMO-RS                            
  Christopher J. Cramer and Donald G. Truhlar   : smd solvation model                     
  S Lehtola, MJT Oliveira, MAL Marques          : LibXC Library                           
  Liviu Ungur et al                             : ANISO software                          


 Your calculation uses the libint2 library for the computation of 2-el integrals
 For citations please refer to: http://libint.valeyev.net

 Your ORCA version has been built with support for libXC version: 6.2.2
 For citations please refer to: https://libxc.gitlab.io

 This ORCA versions uses:
   CBLAS   interface :  Fast vector & matrix operations
   LAPACKE interface :  Fast linear algebra routines
   SCALAPACK package :  Parallel linear algebra routines
   Shared memory     :  Shared parallel matrices
   BLAS/LAPACK       :  OpenBLAS 0.3.27  USE64BITINT DYNAMIC_ARCH NO_AFFINITY Haswell SINGLE_THREADED
        Core in use  :  Haswell
   Copyright (c) 2011-2014, The OpenBLAS Project




***************************************
The coordinates will be read from file: H2CO.xyz
***************************************


Warning: RI is on but no J-basis has been assigned. Assigning Def2/J (nothing to worry about!)
================================================================================

----- Orbital basis set information -----
Your calculation utilizes the basis: def2-TZVP
   F. Weigend and R. Ahlrichs, Phys. Chem. Chem. Phys. 7, 3297 (2005).

----- AuxJ basis set information -----
Your calculation utilizes the auxiliary basis: def2/J
   F. Weigend, Phys. Chem. Chem. Phys. 8, 1057 (2006).

================================================================================
                                        WARNINGS
                       Please study these warnings very carefully!
================================================================================

WARNING: Old DensityContainer found on disk!
         Will remove this file - 
         If you want to keep old densities, please start your calculation with a different basename. 

INFO   : Checking CIS options ...

WARNING: CIS/ROCIS methods need fully converged wavefunctions
  ===> : Setting SCFConvForced true
         You can overwrite this default with %scf ConvForced false 


================================================================================
                                       INPUT FILE
================================================================================
NAME = H2CO.inp
|  1> !B3LYP def2-TZVP
|  2> %TDDFT
|  3> NROOTS  50
|  4> TPrint 0.000001
|  5> TDA TRUE
|  6> END
|  7> * xyzfile 0 1 H2CO.xyz
|  8> %scf
|  9> MaxIter 100
| 10> end
| 11> 
| 12>                          ****END OF INPUT****
================================================================================

                       ****************************
                       * Single Point Calculation *
                       ****************************

---------------------------------
CARTESIAN COORDINATES (ANGSTROEM)
---------------------------------
  C     -0.428502   -1.070959    0.000010
  O      0.770237   -1.070959   -0.000003
  H     -1.016634   -0.132124   -0.000003
  H     -1.016634   -2.009794    0.000036

----------------------------
CARTESIAN COORDINATES (A.U.)
----------------------------
  NO LB      ZA    FRAG     MASS         X           Y           Z
   0 C     6.0000    0    12.011   -0.809751   -2.023819    0.000019
   1 O     8.0000    0    15.999    1.455537   -2.023819   -0.000006
   2 H     1.0000    0     1.008   -1.921160   -0.249678   -0.000006
   3 H     1.0000    0     1.008   -1.921160   -3.797960    0.000068

--------------------------------
INTERNAL COORDINATES (ANGSTROEM)
--------------------------------
 C      0   0   0     0.000000000000     0.00000000     0.00000000
 O      1   0   0     1.198739000070     0.00000000     0.00000000
 H      1   2   0     1.107840424799   122.06503441     0.00000000
 H      1   2   3     1.107840425027   122.06503443   180.00001486

---------------------------
INTERNAL COORDINATES (A.U.)
---------------------------
 C      0   0   0     0.000000000000     0.00000000     0.00000000
 O      1   0   0     2.265288416184     0.00000000     0.00000000
 H      1   2   0     2.093515002956   122.06503441     0.00000000
 H      1   2   3     2.093515003389   122.06503443   180.00001486

---------------------
BASIS SET INFORMATION
---------------------
There are 3 groups of distinct atoms

 Group   1 Type C   : 11s6p2d1f contracted to 5s3p2d1f pattern {62111/411/11/1}
 Group   2 Type O   : 11s6p2d1f contracted to 5s3p2d1f pattern {62111/411/11/1}
 Group   3 Type H   : 5s1p contracted to 3s1p pattern {311/1}

Atom   0C    basis set group =>   1
Atom   1O    basis set group =>   2
Atom   2H    basis set group =>   3
Atom   3H    basis set group =>   3
---------------------------------
AUXILIARY/J BASIS SET INFORMATION
---------------------------------
There are 3 groups of distinct atoms

 Group   1 Type C   : 12s5p4d2f1g contracted to 6s4p3d1f1g pattern {711111/2111/211/2/1}
 Group   2 Type O   : 12s5p4d2f1g contracted to 6s4p3d1f1g pattern {711111/2111/211/2/1}
 Group   3 Type H   : 5s2p1d contracted to 3s1p1d pattern {311/2/1}

Atom   0C    basis set group =>   1
Atom   1O    basis set group =>   2
Atom   2H    basis set group =>   3
Atom   3H    basis set group =>   3

Checking for AutoStart:
The File: H2CO.gbw exists
Trying to determine its content:
     ... Fine, the file contains calculation information
     ... Fine, the calculation information was read
     ... Fine, the file contains a basis set
     ... Fine, the basis set was read
     ... Fine, the file contains a geometry
     ... Fine, the geometry was read
     ... Fine, the file contains a set of orbitals
     ... Fine, the orbitals can be read
     => possible old guess file was deleted
     => GBW file was renamed to GES file
     => GES file is set as startup file
     => Guess is set to MORead
     ... now leaving AutoStart

------------------------------------------------------------------------------
                             ORCA STARTUP CALCULATIONS
                           -- RI-GTO INTEGRALS CHOSEN --
------------------------------------------------------------------------------
------------------------------------------------------------------------------
                   ___                                                        
                  /   \      - P O W E R E D   B Y -                         
                 /     \                                                     
                 |  |  |   _    _      __       _____    __    __             
                 |  |  |  | |  | |    /  \     |  _  \  |  |  /  |          
                  \  \/   | |  | |   /    \    | | | |  |  | /  /          
                 / \  \   | |__| |  /  /\  \   | |_| |  |  |/  /          
                |  |  |   |  __  | /  /__\  \  |    /   |      \           
                |  |  |   | |  | | |   __   |  |    \   |  |\   \          
                \     /   | |  | | |  |  |  |  | |\  \  |  | \   \       
                 \___/    |_|  |_| |__|  |__|  |_| \__\ |__|  \__/        
                                                                              
                      - O R C A' S   B I G   F R I E N D -                    
                                      &                                       
                       - I N T E G R A L  F E E D E R -                       
                                                                              
 v1 FN, 2020, v2 2021, v3 2022-2024                                           
------------------------------------------------------------------------------


----------------------
SHARK INTEGRAL PACKAGE
----------------------

Number of atoms                             ...      4
Number of basis functions                   ...     74
Number of shells                            ...     30
Maximum angular momentum                    ...      3
Integral batch strategy                     ... SHARK/LIBINT Hybrid
RI-J (if used) integral strategy            ... SPLIT-RIJ (Revised 2003 algorithm where possible)
Printlevel                                  ...      1
Contraction scheme used                     ... SEGMENTED contraction
Prescreening option                         ... SCHWARTZ
   Thresh                                   ... 1.000e-10
   Tcut                                     ... 1.000e-11
   Tpresel                                  ... 1.000e-11 
Coulomb Range Separation                    ... NOT USED
Exchange Range Separation                   ... NOT USED
Multipole approximations                    ... NOT USED
Finite Nucleus Model                        ... NOT USED
CABS basis                                  ... NOT available
Auxiliary Coulomb fitting basis             ... AVAILABLE
   # of basis functions in Aux-J            ...    120
   # of shells in Aux-J                     ...     40
   Maximum angular momentum in Aux-J        ...      4
Auxiliary J/K fitting basis                 ... NOT available
Auxiliary Correlation fitting basis         ... NOT available
Auxiliary 'external' fitting basis          ... NOT available

Checking pre-screening integrals            ... done (  0.0 sec) Dimension = 30
Check shell pair data                       ... done (  0.0 sec)
Shell pair information
Shell pair cut-off parameter TPreSel        ...   1.0e-11
Total number of shell pairs                 ...       465
Shell pairs after pre-screening             ...       464
Total number of primitive shell pairs       ...      1428
Primitive shell pairs kept                  ...      1288
          la=0 lb=0:    135 shell pairs
          la=1 lb=0:    128 shell pairs
          la=1 lb=1:     36 shell pairs
          la=2 lb=0:     64 shell pairs
          la=2 lb=1:     32 shell pairs
          la=2 lb=2:     10 shell pairs
          la=3 lb=0:     32 shell pairs
          la=3 lb=1:     16 shell pairs
          la=3 lb=2:      8 shell pairs
          la=3 lb=3:      3 shell pairs

Calculating one electron integrals          ... done (  0.0 sec)
Calculating RI/J V-Matrix + Cholesky decomp.... done (  0.0 sec)
Calculating Nuclear repulsion               ... done (  0.0 sec) ENN=     31.397797317683 Eh

Diagonalization of the overlap matrix:
Smallest eigenvalue                        ... 1.427e-03
Time for diagonalization                   ...    0.002 sec
Threshold for overlap eigenvalues          ... 1.000e-07
Number of eigenvalues below threshold      ... 0
Time for construction of square roots      ...    0.000 sec
Total time needed                          ...    0.002 sec

-------------------
DFT GRID GENERATION
-------------------

General Integration Accuracy     IntAcc      ... 4.388
Radial Grid Type                 RadialGrid  ... OptM3 with GC (2021)
Angular Grid (max. ang.)         AngularGrid ... 4 (Lebedev-302)
Angular grid pruning method      GridPruning ... 4 (adaptive)
Weight generation scheme         WeightScheme... mBecke (2022)
Basis function cutoff            BFCut       ... 1.0000e-10
Integration weight cutoff        WCut        ... 1.0000e-14
Partially contracted basis set               ... off
Rotationally invariant grid construction     ... off
Angular grids for H and He will be reduced by one unit

Total number of grid points                  ...    18835
Total number of batches                      ...      296
Average number of points per batch           ...       63
Average number of grid points per atom       ...     4709

--------------------
COSX GRID GENERATION
--------------------

GRIDX 1
-------
General Integration Accuracy     IntAcc      ... 3.816
Radial Grid Type                 RadialGrid  ... OptM3 with GC (2021)
Angular Grid (max. ang.)         AngularGrid ... 1 (Lebedev-50)
Angular grid pruning method      GridPruning ... 4 (adaptive)
Weight generation scheme         WeightScheme... mBecke (2022)
Basis function cutoff            BFCut       ... 1.0000e-10
Integration weight cutoff        WCut        ... 1.0000e-14
Partially contracted basis set               ... on
Rotationally invariant grid construction     ... off
Angular grids for H and He will be reduced by one unit

Total number of grid points                  ...     2416
Total number of batches                      ...       22
Average number of points per batch           ...      109
Average number of grid points per atom       ...      604
UseSFitting                                  ... on

GRIDX 2
-------
General Integration Accuracy     IntAcc      ... 4.020
Radial Grid Type                 RadialGrid  ... OptM3 with GC (2021)
Angular Grid (max. ang.)         AngularGrid ... 2 (Lebedev-110)
Angular grid pruning method      GridPruning ... 4 (adaptive)
Weight generation scheme         WeightScheme... mBecke (2022)
Basis function cutoff            BFCut       ... 1.0000e-10
Integration weight cutoff        WCut        ... 1.0000e-14
Partially contracted basis set               ... on
Rotationally invariant grid construction     ... off
Angular grids for H and He will be reduced by one unit

Total number of grid points                  ...     5362
Total number of batches                      ...       44
Average number of points per batch           ...      121
Average number of grid points per atom       ...     1340
UseSFitting                                  ... on

GRIDX 3
-------
General Integration Accuracy     IntAcc      ... 4.338
Radial Grid Type                 RadialGrid  ... OptM3 with GC (2021)
Angular Grid (max. ang.)         AngularGrid ... 3 (Lebedev-194)
Angular grid pruning method      GridPruning ... 4 (adaptive)
Weight generation scheme         WeightScheme... mBecke (2022)
Basis function cutoff            BFCut       ... 1.0000e-10
Integration weight cutoff        WCut        ... 1.0000e-14
Partially contracted basis set               ... on
Rotationally invariant grid construction     ... off
Angular grids for H and He will be reduced by one unit

Total number of grid points                  ...    11891
Total number of batches                      ...       94
Average number of points per batch           ...      126
Average number of grid points per atom       ...     2973
UseSFitting                                  ... on
Initializing property integral containers    ... done (  0.0 sec)

SHARK setup successfully completed in   0.1 seconds

Maximum memory used throughout the entire STARTUP-calculation: 13.7 MB
-------------------------------------------------------------------------------
                                 ORCA GUESS
                   Start orbitals & Density for SCF / CASSCF
-------------------------------------------------------------------------------

------------
SCF SETTINGS
------------
Hamiltonian:
 Density Functional     Method          .... DFT(GTOs)
 Exchange Functional    Exchange        .... B88
   X-Alpha parameter    XAlpha          ....  0.666667
   Becke's b parameter  XBeta           ....  0.004200
 Correlation Functional Correlation     .... LYP
 LDA part of GGA corr.  LDAOpt          .... VWN-5
 Gradients option       PostSCFGGA      .... off
 Hybrid DFT is turned on
   Fraction HF Exchange ScalHFX         ....  0.200000
   Scaling of DF-GGA-X  ScalDFX         ....  0.720000
   Scaling of DF-GGA-C  ScalDFC         ....  0.810000
   Scaling of DF-LDA-C  ScalLDAC        ....  1.000000
   Perturbative correction              ....  0.000000
   NL short-range parameter             ....  4.800000
 RI-approximation to the Coulomb term is turned on
   Number of AuxJ basis functions       .... 120
   RIJ-COSX (HFX calculated with COS-X)).... on


General Settings:
 Integral files         IntName         .... H2CO
 Hartree-Fock type      HFTyp           .... RHF
 Total Charge           Charge          ....    0
 Multiplicity           Mult            ....    1
 Number of Electrons    NEL             ....   16
 Basis Dimension        Dim             ....   74
 Nuclear Repulsion      ENuc            ....     31.3977973177 Eh

Convergence Acceleration:
 AO-DIIS                CNVDIIS         .... on
   Start iteration      DIISMaxIt       ....    12
   Startup error        DIISStart       ....  0.200000
   # of expansion vecs  DIISMaxEq       ....     5
   Bias factor          DIISBfac        ....   1.050
   Max. coefficient     DIISMaxC        ....  10.000
 MO-DIIS                CNVKDIIS        .... off
 Trust-Rad. Augm. Hess. CNVTRAH         .... auto
   Auto Start mean grad. ratio tolernc. ....  1.125000
   Auto Start start iteration           ....     1
   Auto Start num. interpolation iter.  ....    10
   Max. Number of Micro iterations      ....    24
   Max. Number of Macro iterations      .... Maxiter - #DIIS iter
   Number of Davidson start vectors     ....     2
   Converg. threshold    (grad. norm)   ....   5.000e-05
   Grad. Scal. Fac. for Micro threshold ....   0.100
   Minimum threshold for Micro iter.    ....   1.000e-02
   NR start threshold (gradient norm)   ....   1.000e-04
   Initial trust radius                 ....   0.400
   Minimum AH scaling param. (alpha)    ....   1.000
   Maximum AH scaling param. (alpha)    .... 1000.000
   Quad. conv. algorithm                .... NR
   White noise on init. David. guess    .... on
   Maximum white noise                  ....   0.010
   Pseudo random numbers                .... off
   Inactive MOs                         .... canonical
   Orbital update algorithm             .... Taylor
   Preconditioner                       .... Diag
   Full preconditioner red. dimension   ....   250
 SOSCF                  CNVSOSCF        .... on
   Start iteration      SOSCFMaxIt      ....   150
   Startup grad/error   SOSCFStart      ....  0.003300
   Hessian update       SOSCFHessUp     .... L-BFGS
 Level Shifting         CNVShift        .... on
   Level shift para.    LevelShift      ....    0.2500
   Turn off err/grad.   ShiftErr        ....    0.0010
 Zerner damping         CNVZerner       .... off
 Static damping         CNVDamp         .... on
   Fraction old density DampFac         ....    0.7000
   Max. Damping (<1)    DampMax         ....    0.9800
   Min. Damping (>=0)   DampMin         ....    0.0000
   Turn off err/grad.   DampErr         ....    0.1000

SCF Procedure:
 Maximum # iterations   MaxIter         ....   100
 SCF integral mode      SCFMode         .... Direct
   Integral package                     .... SHARK and LIBINT hybrid scheme
 Reset frequency        DirectResetFreq ....    20
 Integral Threshold     Thresh          ....  1.000e-10 Eh
 Primitive CutOff       TCut            ....  1.000e-11 Eh

Convergence Tolerance:
 Convergence Check Mode ConvCheckMode   .... Total+1el-Energy
 Convergence forced     ConvForced      .... 1
 Energy Change          TolE            ....  1.000e-06 Eh
 1-El. energy change                    ....  1.000e-03 Eh
 Orbital Gradient       TolG            ....  5.000e-05
 Orbital Rotation angle TolX            ....  5.000e-05
 DIIS Error             TolErr          ....  1.000e-06

---------------------
INITIAL GUESS: MOREAD
---------------------
Guess MOs are being read from file: H2CO.ges
Input Geometry matches current geometry (good)
Atom 0: N(Shells)= 11 and 10 - projection required
Input basis set needs projection
NBasis(read)= 88
NBasis(calc)= 74
Basis set overlap was calculated
Using GuessMode=FMatrix for the initial guess
C*T matrix was formed
Effective Fockian was calculated
Effective Fockian was diagonalized
Initial density was built
                      ------------------
                      INITIAL GUESS DONE (   0.0 sec)
                      ------------------
             **** ENERGY FILE WAS UPDATED (H2CO.en.tmp) ****
Finished Guess after   0.0 sec
Maximum memory used throughout the entire GUESS-calculation: 8.0 MB

-------------------------------------------------------------------------------------------
                                      ORCA LEAN-SCF
                              memory conserving SCF solver
-------------------------------------------------------------------------------------------

----------------------------------------D-I-I-S--------------------------------------------
Iteration    Energy (Eh)           Delta-E    RMSDP     MaxDP     DIISErr   Damp  Time(sec)
-------------------------------------------------------------------------------------------
               ***  Starting incremental Fock matrix formation  ***
    1    -114.4938620664998155     0.00e+00  7.02e-04  1.14e-02  9.36e-02  0.700   0.2
    2    -114.4942238094930360    -3.62e-04  6.17e-04  9.30e-03  6.49e-02  0.700   0.1
                               ***Turning on AO-DIIS***
    3    -114.4944810400429560    -2.57e-04  4.78e-04  6.89e-03  4.49e-02  0.700   0.1
    4    -114.4946617864000586    -1.81e-04  1.17e-03  1.63e-02  3.13e-02  0.000   0.1
                              *** Initializing SOSCF ***
---------------------------------------S-O-S-C-F--------------------------------------
Iteration    Energy (Eh)           Delta-E    RMSDP     MaxDP     MaxGrad    Time(sec)
--------------------------------------------------------------------------------------
    5    -114.4950865024503059    -4.25e-04  3.27e-05  6.03e-04  1.44e-04     0.1
               *** Restarting incremental Fock matrix formation ***
    6    -114.4950883338103438    -1.83e-06  1.64e-05  3.29e-04  6.13e-05     0.2
    7    -114.4950883505508159    -1.67e-08  4.93e-06  9.20e-05  1.71e-05     0.1
                 **** Energy Check signals convergence ****

               *****************************************************
               *                     SUCCESS                       *
               *           SCF CONVERGED AFTER   7 CYCLES          *
               *****************************************************

Recomputing exchange energy using gridx3       ... done (    0.241 sec)
Old exchange energy                            :     -2.812970250 Eh
New exchange energy                            :     -2.812969813 Eh
Exchange energy change after final integration :      0.000000437 Eh
Total energy after final integration           :   -114.495087913 Eh
             **** ENERGY FILE WAS UPDATED (H2CO.en.tmp) ****

----------------
TOTAL SCF ENERGY
----------------

Total Energy       :       -114.49508791342006 Eh           -3115.56973 eV

Components:
Nuclear Repulsion  :         31.39779731768289 Eh             854.37750 eV
Electronic Energy  :       -145.89288566823370 Eh           -3969.94725 eV
One Electron Energy:       -217.73726672240156 Eh           -5924.93225 eV
Two Electron Energy:         71.84438105416784 Eh            1954.98500 eV

Virial components:
Potential Energy   :       -228.54227020637768 Eh           -6218.95134 eV
Kinetic Energy     :        114.04718229295760 Eh            3103.38160 eV
Virial Ratio       :          2.00392737121126

DFT components:
N(Alpha)           :        8.000002623986 electrons
N(Beta)            :        8.000002623986 electrons
N(Total)           :       16.000005247972 electrons
E(X)               :      -11.207303285388 Eh       
E(C)               :       -0.638890720802 Eh       
E(XC)              :      -11.846194006191 Eh       

---------------
SCF CONVERGENCE
---------------

  Last Energy change         ...    1.6740e-08  Tolerance :   1.0000e-06
  Last MAX-Density change    ...    9.2040e-05  Tolerance :   1.0000e-05
  Last RMS-Density change    ...    4.9277e-06  Tolerance :   1.0000e-06
  Last DIIS Error            ...    1.4445e-04  Tolerance :   1.0000e-06
  Last Orbital Gradient      ...    1.7062e-05  Tolerance :   5.0000e-05
  Last Orbital Rotation      ...    5.2242e-05  Tolerance :   5.0000e-05


----------------
ORBITAL ENERGIES
----------------

  NO   OCC          E(Eh)            E(eV) 
   0   2.0000     -19.146604      -521.0056 
   1   2.0000     -10.272378      -279.5256 
   2   2.0000      -1.069270       -29.0963 
   3   2.0000      -0.639030       -17.3889 
   4   2.0000      -0.501974       -13.6594 
   5   2.0000      -0.458920       -12.4878 
   6   2.0000      -0.409238       -11.1359 
   7   2.0000      -0.276280        -7.5179 
   8   0.0000      -0.055235        -1.5030 
   9   0.0000       0.054073         1.4714 
  10   0.0000       0.108811         2.9609 
  11   0.0000       0.112501         3.0613 
  12   0.0000       0.205575         5.5940 
  13   0.0000       0.208695         5.6789 
  14   0.0000       0.261192         7.1074 
  15   0.0000       0.393963        10.7203 
  16   0.0000       0.415620        11.3096 
  17   0.0000       0.438900        11.9431 
  18   0.0000       0.489634        13.3236 
*Only the first 10 virtual orbitals were printed.

                    ********************************
                    * MULLIKEN POPULATION ANALYSIS *
                    ********************************

-----------------------
MULLIKEN ATOMIC CHARGES
-----------------------
   0 C :    0.074036
   1 O :   -0.236441
   2 H :    0.081202
   3 H :    0.081202
Sum of atomic charges:    0.0000000

--------------------------------
MULLIKEN REDUCED ORBITAL CHARGES
--------------------------------
  0 C s       :     3.265708  s :     3.265708
      pz      :     0.706978  p :     2.520649
      px      :     0.817540
      py      :     0.996132
      dz2     :     0.006312  d :     0.127026
      dxz     :     0.024035
      dyz     :     0.000000
      dx2y2   :     0.017090
      dxy     :     0.079590
      f0      :     0.001752  f :     0.012580
      f+1     :     0.001252
      f-1     :     0.000360
      f+2     :     0.002034
      f-2     :     0.000000
      f+3     :     0.003023
      f-3     :     0.004159

  1 O s       :     3.824750  s :     3.824750
      pz      :     1.247524  p :     4.379765
      px      :     1.333351
      py      :     1.798891
      dz2     :     0.002334  d :     0.030142
      dxz     :     0.012191
      dyz     :     0.000000
      dx2y2   :     0.007227
      dxy     :     0.008390
      f0      :     0.000152  f :     0.001783
      f+1     :     0.000100
      f-1     :     0.000022
      f+2     :     0.000512
      f-2     :     0.000000
      f+3     :     0.000395
      f-3     :     0.000603

  2 H s       :     0.899384  s :     0.899384
      pz      :     0.002412  p :     0.019413
      px      :     0.005697
      py      :     0.011305

  3 H s       :     0.899384  s :     0.899384
      pz      :     0.002412  p :     0.019413
      px      :     0.005697
      py      :     0.011305



                     *******************************
                     * LOEWDIN POPULATION ANALYSIS *
                     *******************************

----------------------
LOEWDIN ATOMIC CHARGES
----------------------
   0 C :   -0.277248
   1 O :    0.105098
   2 H :    0.086075
   3 H :    0.086075

-------------------------------
LOEWDIN REDUCED ORBITAL CHARGES
-------------------------------
  0 C s       :     2.927540  s :     2.927540
      pz      :     0.707887  p :     2.765323
      px      :     1.005556
      py      :     1.051880
      dz2     :     0.031966  d :     0.503962
      dxz     :     0.060003
      dyz     :     0.000000
      dx2y2   :     0.109746
      dxy     :     0.302246
      f0      :     0.006531  f :     0.080424
      f+1     :     0.009679
      f-1     :     0.002756
      f+2     :     0.012173
      f-2     :     0.000000
      f+3     :     0.014806
      f-3     :     0.034479

  1 O s       :     3.424216  s :     3.424216
      pz      :     1.184065  p :     4.390571
      px      :     1.533826
      py      :     1.672681
      dz2     :     0.008192  d :     0.073601
      dxz     :     0.013458
      dyz     :     0.000000
      dx2y2   :     0.024931
      dxy     :     0.027019
      f0      :     0.000368  f :     0.006514
      f+1     :     0.000944
      f-1     :     0.000170
      f+2     :     0.000766
      f-2     :     0.000000
      f+3     :     0.001860
      f-3     :     0.002407

  2 H s       :     0.856003  s :     0.856003
      pz      :     0.007375  p :     0.057922
      px      :     0.016253
      py      :     0.034293

  3 H s       :     0.856003  s :     0.856003
      pz      :     0.007375  p :     0.057922
      px      :     0.016253
      py      :     0.034293



                      *****************************
                      * MAYER POPULATION ANALYSIS *
                      *****************************

  NA   - Mulliken gross atomic population
  ZA   - Total nuclear charge
  QA   - Mulliken gross atomic charge
  VA   - Mayer's total valence
  BVA  - Mayer's bonded valence
  FA   - Mayer's free valence

  ATOM       NA         ZA         QA         VA         BVA        FA
  0 C      5.9260     6.0000     0.0740     3.9382     3.9382     0.0000
  1 O      8.2364     8.0000    -0.2364     2.1417     2.1417     0.0000
  2 H      0.9188     1.0000     0.0812     0.9310     0.9310    -0.0000
  3 H      0.9188     1.0000     0.0812     0.9310     0.9310    -0.0000

  Mayer bond orders larger than 0.100000
B(  0-C ,  1-O ) :   2.1023 B(  0-C ,  2-H ) :   0.9180 B(  0-C ,  3-H ) :   0.9180 


-------
TIMINGS
-------

Total SCF time: 0 days 0 hours 0 min 1 sec 

Total time                  ....       1.212 sec
Sum of individual times     ....       1.208 sec  ( 99.6%)

SCF preparation             ....       0.032 sec  (  2.7%)
Fock matrix formation       ....       1.152 sec  ( 95.1%)
  Startup                   ....       0.000 sec  (  0.0% of F)
  Split-RI-J                ....       0.059 sec  (  5.1% of F)
  Chain of spheres X        ....       0.826 sec  ( 71.7% of F)
  XC integration            ....       0.264 sec  ( 22.9% of F)
    Basis function eval.    ....       0.097 sec  ( 36.6% of XC)
    Density eval.           ....       0.052 sec  ( 19.9% of XC)
    XC-Functional eval.     ....       0.024 sec  (  8.9% of XC)
    XC-Potential eval.      ....       0.074 sec  ( 28.1% of XC)
Diagonalization             ....       0.000 sec  (  0.0%)
Density matrix formation    ....       0.002 sec  (  0.2%)
Total Energy calculation    ....       0.000 sec  (  0.0%)
Population analysis         ....       0.002 sec  (  0.2%)
Orbital Transformation      ....       0.010 sec  (  0.9%)
Orbital Orthonormalization  ....       0.000 sec  (  0.0%)
DIIS solution               ....       0.007 sec  (  0.6%)
SOSCF solution              ....       0.001 sec  (  0.1%)
Finished LeanSCF after   1.2 sec

Maximum memory used throughout the entire LEANSCF-calculation: 7.8 MB

------------------------------------------------------------------------------
                         ORCA PROPERTY INTEGRAL CALCULATIONS
------------------------------------------------------------------------------

GBWName                                   ... H2CO.gbw
Number of atoms                           ...      4
Number of basis functions                 ...     74
Max core memory                           ...   1024 MB

Dipole integrals                          ... YES
Quadrupole integrals                      ...  NO
Linear momentum integrals                 ... YES
Angular momentum integrals                ... YES
Higher moments length integrals           ...  NO
Higher moments velocity integrals         ...  NO
Kinetic energy integrals                  ...  NO
GIAO right hand sides                     ...  NO
GIAO dipole derivative integrals          ...  NO
SOC integrals                             ...  NO
EPR diamagnetic integrals (GIAO)          ...  NO
EPR gauge integrals                       ...  NO
Field gradient integrals                  ...  NO (   0 nuclei)
Spin-dipole/Fermi contact integrals       ...  NO (   0 nuclei)
Contact density integrals                 ...  NO (   0 nuclei)
Nucleus-orbit integrals                   ...  NO (   0 nuclei)
Geometric perturbations                   ...  NO (   4 nuclei)

Choice of electric origin   ... Center of mass
Position of electric origin ... (  0.3227, -2.0238,  0.0000) 
Choice of magnetic origin   ... GIAO
Position of magnetic origin ... (  0.0000,  0.0000,  0.0000) 

Calculating integrals                     ... Electric Dipole (Length)     done (  0.0 sec)
Calculating integrals                     ... Linear Momentum              done (  0.0 sec)
Calculating integrals                     ... Angular Momentum  (ElOri)    done (  0.0 sec)

Property integrals calculated in   0.0 sec

Maximum memory used throughout the entire PROPINT-calculation: 8.2 MB
------------------------------------------------------------------------------
                        ORCA TD-DFT/TDA CALCULATION
------------------------------------------------------------------------------

Input orbitals are from        ... H2CO.gbw
CI-vector output               ... H2CO.cis
Solver                         ... FN-2001
Tamm-Dancoff approximation     ... operative
CIS-Integral strategy          ... AO-integrals
Integral handling              ... AO integral Direct
Max. core memory used          ... 512 MB
Reference state                ... RHF
Generation of triplets         ... off
Follow IRoot                   ... off
Number of operators            ... 1
Orbital ranges used for CIS calculation:
 Operator 0:  Orbitals   2...  7  to   8... 73
XAS localization array:
 Operator 0:  Orbitals  -1... -1

-------------------
XC-INTEGRATION GRID
-------------------

General Integration Accuracy     IntAcc      ... 3.467
Radial Grid Type                 RadialGrid  ... OptM3 with GC (2021)
Angular Grid (max. ang.)         AngularGrid ... 1 (Lebedev-50)
Angular grid pruning method      GridPruning ... 4 (adaptive)
Weight generation scheme         WeightScheme... mBecke (2022)
Basis function cutoff            BFCut       ... 1.0000e-10
Integration weight cutoff        WCut        ... 1.0000e-14
Partially contracted basis set               ... off
Rotationally invariant grid construction     ... off
Angular grids for H and He will be reduced by one unit

Total number of grid points                  ...     2791
Total number of batches                      ...       45
Average number of points per batch           ...       62
Average number of grid points per atom       ...      698

---------------------
COSX-INTEGRATION GRID
---------------------

General Integration Accuracy     IntAcc      ... 3.067
Radial Grid Type                 RadialGrid  ... OptM3 with GC (2021)
Angular Grid (max. ang.)         AngularGrid ... 1 (Lebedev-50)
Angular grid pruning method      GridPruning ... 4 (adaptive)
Weight generation scheme         WeightScheme... mBecke (2022)
Basis function cutoff            BFCut       ... 1.0000e-10
Integration weight cutoff        WCut        ... 1.0000e-14
Partially contracted basis set               ... on
Rotationally invariant grid construction     ... off
Angular grids for H and He will be reduced by one unit

Total number of grid points                  ...     1259
Total number of batches                      ...       12
Average number of points per batch           ...      104
Average number of grid points per atom       ...      315

---------------
TD-DFT XC SETUP
---------------

DFT calculation                         ... on
Name of the grid file                   ... H2CO.grid_cis.tmp
RI-approximation                        ... on
Aux-basis dimension                     ... 0
Exchange functional (TD-DFT)            ... B88
   X-Alpha parameter    XAlpha (TD-DFT) ...  0.666667
   Becke's b parameter  XBeta (TD-DFT)  ...  0.004200
Correlation functional (TD-DFT)         ... LYP
 LDA part of GGA corr.  LDAOpt (TD-DFT) ... VWN-5
Hybrid DFT                              ... on
   Exchange mixing (TD-DFT)             ...  0.200
   GGA exch. scaling (TD-DFT)           ...  0.720
   GGA corr. scaling (TD-DFT)           ...  0.810

Building densities             ... done
Calculating rho(r) on the grid ... done
Building xc-kernel on the grid ... done
                    *** TD-DFT CALCULATION INITIALIZED ***

------------------------
DAVIDSON-DIAGONALIZATION
------------------------

Dimension of the eigenvalue problem            ...    396
Number of roots to be determined               ...     50
Maximum size of the expansion space            ...    396
Maximum number of iterations                   ...    100
Convergence tolerance for the residual         ...    1.000e-06
Convergence tolerance for the energies         ...    1.000e-06
Orthogonality tolerance                        ...    1.000e-14
Level Shift                                    ...    0.000e+00
Constructing the preconditioner                ... o.k.
Building the initial guess                     ... o.k.
Number of trial vectors determined             ...    396


                       ****Iteration    0****
   Time for iteration     :  TOTAL=1.0 TRAFO=0.0 RIJ=0.1 COSX=0.3 XC=0.5
   Size of expansion space: 150
   Lowest Energy          :     0.148817214895
   Maximum Energy change  :     0.853306618281 (vector 49)
   Maximum residual norm  :     0.003301057176

                       ****Iteration    1****
   Time for iteration     :  TOTAL=0.3 TRAFO=0.0 RIJ=0.0 COSX=0.1 XC=0.2
   Size of expansion space: 200
   Lowest Energy          :     0.148430725090
   Maximum Energy change  :     0.001049747249 (vector 3)
   Maximum residual norm  :     0.000001775731

                       ****Iteration    2****
   Time for iteration     :  TOTAL=0.3 TRAFO=0.0 RIJ=0.0 COSX=0.1 XC=0.2
   Size of expansion space: 250
   Lowest Energy          :     0.148430702764
   Maximum Energy change  :     0.000000252456 (vector 13)

         *** CONVERGENCE OF ENERGIES REACHED ***

Storing the converged CI vectors               ... H2CO.cis1

                 *** DAVIDSON DONE ***

Total time for solving the CIS problem:     1.843sec

------------------------------------
TD-DFT/TDA EXCITED STATES (SINGLETS)
------------------------------------

the weight of the individual excitations are printed if larger than 1.0e-06

STATE  1:  E=   0.148431 au      4.039 eV    32576.8 cm**-1 <S**2> =   0.000000 Mult 1
     2a ->  20a  :     0.000036 (c= -0.00601871)
     2a ->  29a  :     0.000025 (c= -0.00500744)
     2a ->  36a  :     0.000002 (c= -0.00140649)
     2a ->  45a  :     0.000002 (c= -0.00123034)
     3a ->  20a  :     0.000008 (c= -0.00289894)
     3a ->  29a  :     0.000009 (c=  0.00306918)
     4a ->   8a  :     0.000965 (c=  0.03105842)
     4a ->  13a  :     0.000006 (c=  0.00248415)
     4a ->  19a  :     0.000063 (c=  0.00790740)
     4a ->  23a  :     0.000076 (c= -0.00873187)
     4a ->  28a  :     0.000014 (c= -0.00376603)
     4a ->  34a  :     0.000012 (c=  0.00342342)
     4a ->  44a  :     0.000007 (c= -0.00271370)
     4a ->  50a  :     0.000003 (c= -0.00174633)
     4a ->  60a  :     0.000002 (c=  0.00157120)
     5a ->  29a  :     0.000003 (c=  0.00171372)
     5a ->  36a  :     0.000009 (c=  0.00304717)
     5a ->  45a  :     0.000002 (c= -0.00127178)
     5a ->  52a  :     0.000003 (c= -0.00175400)
     5a ->  62a  :     0.000003 (c=  0.00161666)
     6a ->  14a  :     0.000002 (c= -0.00139353)
     6a ->  17a  :     0.000002 (c=  0.00151201)
     6a ->  21a  :     0.000011 (c=  0.00324378)
     6a ->  31a  :     0.000001 (c= -0.00117089)
     6a ->  32a  :     0.000002 (c= -0.00154362)
     6a ->  38a  :     0.000001 (c=  0.00115885)
     6a ->  51a  :     0.000003 (c=  0.00158785)
     6a ->  61a  :     0.000006 (c= -0.00235516)
     7a ->   8a  :     0.996821 (c= -0.99840905)
     7a ->  13a  :     0.001157 (c= -0.03402153)
     7a ->  19a  :     0.000591 (c= -0.02431223)
     7a ->  23a  :     0.000101 (c=  0.01004602)
     7a ->  28a  :     0.000003 (c= -0.00186598)
     7a ->  34a  :     0.000004 (c=  0.00187568)
     7a ->  44a  :     0.000025 (c=  0.00500136)
     7a ->  50a  :     0.000001 (c=  0.00110990)
     7a ->  60a  :     0.000009 (c= -0.00303276)

STATE  2:  E=   0.291214 au      7.924 eV    63914.1 cm**-1 <S**2> =   0.000000 Mult 1
     2a ->  11a  :     0.000004 (c=  0.00208551)
     2a ->  14a  :     0.000009 (c=  0.00295053)
     2a ->  17a  :     0.000005 (c= -0.00225098)
     2a ->  31a  :     0.000001 (c= -0.00114203)
     3a ->  14a  :     0.000032 (c= -0.00563841)
     3a ->  17a  :     0.000283 (c= -0.01683007)
     3a ->  21a  :     0.000004 (c=  0.00203818)
     3a ->  25a  :     0.000003 (c= -0.00182480)
     3a ->  31a  :     0.000011 (c= -0.00324389)
     3a ->  32a  :     0.000002 (c= -0.00150079)
     3a ->  38a  :     0.000001 (c= -0.00116497)
     4a ->   9a  :     0.000297 (c=  0.01724269)
     4a ->  10a  :     0.000166 (c=  0.01288056)
     4a ->  12a  :     0.000304 (c=  0.01743683)
     4a ->  15a  :     0.000043 (c= -0.00655584)
     4a ->  16a  :     0.000446 (c= -0.02111200)
     4a ->  18a  :     0.000002 (c= -0.00139601)
     4a ->  22a  :     0.000003 (c= -0.00163632)
     4a ->  26a  :     0.000006 (c=  0.00239517)
     4a ->  27a  :     0.000003 (c= -0.00162906)
     4a ->  30a  :     0.000003 (c= -0.00177518)
     4a ->  33a  :     0.000003 (c= -0.00174969)
     4a ->  41a  :     0.000001 (c= -0.00106364)
     4a ->  43a  :     0.000003 (c=  0.00176325)
     5a ->  11a  :     0.000032 (c= -0.00569453)
     5a ->  14a  :     0.000005 (c=  0.00230758)
     5a ->  17a  :     0.000112 (c=  0.01059012)
     5a ->  21a  :     0.000002 (c= -0.00134293)
     5a ->  25a  :     0.000002 (c=  0.00122695)
     5a ->  32a  :     0.000001 (c=  0.00112258)
     6a ->  20a  :     0.000044 (c= -0.00661696)
     6a ->  29a  :     0.000002 (c=  0.00151978)
     7a ->   9a  :     0.985018 (c= -0.99248077)
     7a ->  10a  :     0.011413 (c= -0.10683288)
     7a ->  12a  :     0.001487 (c=  0.03856774)
     7a ->  15a  :     0.000002 (c=  0.00123569)
     7a ->  16a  :     0.000070 (c= -0.00837548)
     7a ->  18a  :     0.000037 (c=  0.00611069)
     7a ->  22a  :     0.000073 (c=  0.00852831)
     7a ->  24a  :     0.000033 (c= -0.00578636)
     7a ->  27a  :     0.000012 (c=  0.00349004)
     7a ->  37a  :     0.000005 (c= -0.00224127)
     7a ->  41a  :     0.000001 (c= -0.00103801)
     7a ->  43a  :     0.000002 (c=  0.00126188)

STATE  3:  E=   0.334890 au      9.113 eV    73499.8 cm**-1 <S**2> =   0.000000 Mult 1
     2a ->  11a  :     0.000001 (c= -0.00100561)
     2a ->  14a  :     0.000009 (c=  0.00293587)
     2a ->  17a  :     0.000002 (c= -0.00138574)
     2a ->  21a  :     0.000018 (c= -0.00422252)
     2a ->  32a  :     0.000001 (c=  0.00114821)
     2a ->  38a  :     0.000004 (c=  0.00187554)
     2a ->  40a  :     0.000001 (c=  0.00114672)
     3a ->  11a  :     0.000025 (c=  0.00503593)
     3a ->  14a  :     0.000018 (c=  0.00419425)
     3a ->  17a  :     0.000074 (c= -0.00858305)
     3a ->  21a  :     0.000020 (c=  0.00444087)
     3a ->  25a  :     0.000005 (c= -0.00230706)
     3a ->  31a  :     0.000002 (c= -0.00157371)
     4a ->   9a  :     0.000090 (c=  0.00946240)
     4a ->  10a  :     0.000022 (c=  0.00467086)
     4a ->  12a  :     0.000268 (c=  0.01636143)
     4a ->  15a  :     0.000058 (c= -0.00759815)
     4a ->  16a  :     0.000057 (c= -0.00756126)
     4a ->  18a  :     0.000007 (c=  0.00260125)
     4a ->  22a  :     0.000036 (c=  0.00602139)
     4a ->  24a  :     0.000005 (c= -0.00231994)
     4a ->  26a  :     0.000010 (c=  0.00321726)
     4a ->  30a  :     0.000003 (c= -0.00161154)
     4a ->  33a  :     0.000010 (c= -0.00323847)
     4a ->  39a  :     0.000002 (c= -0.00126791)
     4a ->  43a  :     0.000001 (c=  0.00120590)
     4a ->  68a  :     0.000001 (c=  0.00114030)
     5a ->  11a  :     0.000070 (c=  0.00839475)
     5a ->  14a  :     0.000010 (c= -0.00314486)
     5a ->  17a  :     0.000003 (c= -0.00180855)
     5a ->  21a  :     0.000002 (c=  0.00122633)
     5a ->  25a  :     0.000006 (c= -0.00246945)
     5a ->  32a  :     0.000012 (c=  0.00340623)
     5a ->  38a  :     0.000004 (c=  0.00201093)
     5a ->  49a  :     0.000002 (c= -0.00145266)
     5a ->  56a  :     0.000001 (c= -0.00120870)
     5a ->  65a  :     0.000002 (c=  0.00133954)
     5a ->  70a  :     0.000002 (c= -0.00143974)
     6a ->  29a  :     0.000026 (c=  0.00507405)
     6a ->  36a  :     0.000002 (c=  0.00148115)
     6a ->  66a  :     0.000004 (c=  0.00190073)
     7a ->   9a  :     0.011142 (c= -0.10555610)
     7a ->  10a  :     0.987094 (c=  0.99352581)
     7a ->  12a  :     0.000227 (c=  0.01505443)
     7a ->  15a  :     0.000248 (c= -0.01573525)
     7a ->  18a  :     0.000235 (c=  0.01532350)
     7a ->  22a  :     0.000096 (c= -0.00977425)
     7a ->  26a  :     0.000002 (c=  0.00145041)
     7a ->  27a  :     0.000010 (c= -0.00314608)
     7a ->  33a  :     0.000022 (c=  0.00465961)
     7a ->  37a  :     0.000009 (c= -0.00297454)
     7a ->  68a  :     0.000006 (c= -0.00237879)

STATE  4:  E=   0.338115 au      9.201 eV    74207.6 cm**-1 <S**2> =   0.000000 Mult 1
     2a ->   8a  :     0.002683 (c=  0.05179548)
     2a ->  13a  :     0.000066 (c=  0.00815017)
     2a ->  19a  :     0.000142 (c=  0.01189547)
     2a ->  23a  :     0.000005 (c= -0.00229974)
     2a ->  28a  :     0.000005 (c=  0.00217856)
     2a ->  47a  :     0.000001 (c=  0.00106340)
     3a ->   8a  :     0.000703 (c= -0.02652115)
     3a ->  13a  :     0.000016 (c= -0.00401694)
     3a ->  19a  :     0.000002 (c= -0.00154427)
     3a ->  23a  :     0.000033 (c=  0.00576151)
     3a ->  28a  :     0.000003 (c= -0.00180964)
     3a ->  34a  :     0.000001 (c=  0.00101801)
     3a ->  35a  :     0.000011 (c=  0.00329552)
     3a ->  44a  :     0.000003 (c= -0.00176478)
     4a ->  29a  :     0.000108 (c=  0.01037291)
     4a ->  36a  :     0.000003 (c=  0.00170112)
     4a ->  66a  :     0.000003 (c=  0.00163167)
     5a ->   8a  :     0.992398 (c=  0.99619171)
     5a ->  13a  :     0.000991 (c=  0.03147650)
     5a ->  19a  :     0.000736 (c=  0.02713475)
     5a ->  23a  :     0.000002 (c=  0.00149758)
     5a ->  28a  :     0.000046 (c=  0.00678850)
     5a ->  34a  :     0.000002 (c= -0.00144918)
     5a ->  35a  :     0.000212 (c=  0.01455555)
     5a ->  44a  :     0.000026 (c= -0.00507223)
     5a ->  47a  :     0.000004 (c=  0.00202208)
     5a ->  64a  :     0.000001 (c= -0.00102256)
     5a ->  69a  :     0.000010 (c= -0.00321188)
     6a ->   9a  :     0.000031 (c= -0.00558348)
     6a ->  10a  :     0.000299 (c=  0.01730447)
     6a ->  12a  :     0.000018 (c=  0.00419357)
     6a ->  15a  :     0.000353 (c=  0.01877556)
     6a ->  16a  :     0.000021 (c=  0.00459959)
     6a ->  18a  :     0.000153 (c=  0.01238620)
     6a ->  24a  :     0.000089 (c=  0.00942166)
     6a ->  26a  :     0.000005 (c= -0.00213436)
     6a ->  27a  :     0.000017 (c= -0.00414857)
     6a ->  30a  :     0.000104 (c= -0.01021943)
     6a ->  33a  :     0.000103 (c=  0.01015897)
     6a ->  39a  :     0.000011 (c= -0.00338076)
     6a ->  41a  :     0.000010 (c= -0.00313282)
     6a ->  43a  :     0.000002 (c= -0.00132614)
     6a ->  55a  :     0.000001 (c= -0.00108521)
     6a ->  68a  :     0.000007 (c= -0.00257839)
     6a ->  71a  :     0.000002 (c= -0.00126613)
     7a ->  20a  :     0.000243 (c= -0.01559129)
     7a ->  29a  :     0.000205 (c= -0.01430176)
     7a ->  36a  :     0.000088 (c= -0.00936093)
     7a ->  52a  :     0.000003 (c=  0.00179389)
     7a ->  66a  :     0.000010 (c= -0.00322450)

STATE  5:  E=   0.346745 au      9.435 eV    76101.7 cm**-1 <S**2> =   0.000000 Mult 1
     2a ->   9a  :     0.000060 (c= -0.00775708)
     2a ->  10a  :     0.000076 (c=  0.00872287)
     2a ->  12a  :     0.000011 (c=  0.00331431)
     2a ->  15a  :     0.000019 (c=  0.00438320)
     2a ->  16a  :     0.000057 (c=  0.00752443)
     2a ->  18a  :     0.000277 (c=  0.01663015)
     2a ->  22a  :     0.000009 (c= -0.00307463)
     2a ->  24a  :     0.000008 (c=  0.00283701)
     2a ->  26a  :     0.000087 (c= -0.00932064)
     2a ->  27a  :     0.000005 (c=  0.00220460)
     2a ->  30a  :     0.000001 (c= -0.00109468)
     2a ->  33a  :     0.000007 (c=  0.00268980)
     2a ->  37a  :     0.000001 (c= -0.00116125)
     2a ->  39a  :     0.000003 (c=  0.00181355)
     2a ->  48a  :     0.000002 (c= -0.00124820)
     3a ->   9a  :     0.003662 (c= -0.06051799)
     3a ->  10a  :     0.000005 (c=  0.00220792)
     3a ->  12a  :     0.000262 (c=  0.01617371)
     3a ->  15a  :     0.000019 (c=  0.00432191)
     3a ->  16a  :     0.000770 (c=  0.02775776)
     3a ->  18a  :     0.000075 (c= -0.00863926)
     3a ->  22a  :     0.000008 (c=  0.00286896)
     3a ->  24a  :     0.000012 (c=  0.00340722)
     3a ->  26a  :     0.000022 (c=  0.00465142)
     3a ->  27a  :     0.000109 (c=  0.01041793)
     3a ->  30a  :     0.000007 (c=  0.00256776)
     3a ->  33a  :     0.000002 (c=  0.00156239)
     4a ->  11a  :     0.007179 (c= -0.08472813)
     4a ->  14a  :     0.000078 (c= -0.00885758)
     4a ->  17a  :     0.001550 (c=  0.03936710)
     4a ->  21a  :     0.000273 (c= -0.01652488)
     4a ->  25a  :     0.000009 (c= -0.00295477)
     4a ->  31a  :     0.000037 (c=  0.00609376)
     4a ->  32a  :     0.000004 (c=  0.00193244)
     4a ->  40a  :     0.000002 (c=  0.00127944)
     4a ->  49a  :     0.000002 (c=  0.00124262)
     4a ->  61a  :     0.000001 (c=  0.00100571)
     5a ->   9a  :     0.001712 (c=  0.04137129)
     5a ->  10a  :     0.000461 (c=  0.02146794)
     5a ->  12a  :     0.000027 (c= -0.00515481)
     5a ->  15a  :     0.000006 (c= -0.00241378)
     5a ->  18a  :     0.001927 (c=  0.04389353)
     5a ->  22a  :     0.000028 (c=  0.00526225)
     5a ->  26a  :     0.000292 (c= -0.01708905)
     5a ->  30a  :     0.000002 (c= -0.00124532)
     5a ->  33a  :     0.000007 (c= -0.00269721)
     5a ->  37a  :     0.000002 (c= -0.00126786)
     5a ->  39a  :     0.000016 (c=  0.00396464)
     5a ->  41a  :     0.000004 (c=  0.00198363)
     6a ->   8a  :     0.227858 (c= -0.47734437)
     6a ->  13a  :     0.003213 (c=  0.05668698)
     6a ->  19a  :     0.000083 (c=  0.00912038)
     6a ->  23a  :     0.000016 (c= -0.00394751)
     6a ->  28a  :     0.000041 (c=  0.00642428)
     6a ->  60a  :     0.000002 (c=  0.00149538)
     7a ->  11a  :     0.746219 (c=  0.86383944)
     7a ->  14a  :     0.001122 (c= -0.03350337)
     7a ->  17a  :     0.001725 (c= -0.04153383)
     7a ->  21a  :     0.000089 (c=  0.00941197)
     7a ->  25a  :     0.000344 (c= -0.01854385)
     7a ->  31a  :     0.000003 (c= -0.00171859)
     7a ->  32a  :     0.000043 (c=  0.00654314)
     7a ->  42a  :     0.000025 (c= -0.00502857)
     7a ->  49a  :     0.000005 (c= -0.00228224)
     7a ->  51a  :     0.000003 (c=  0.00175141)
     7a ->  61a  :     0.000004 (c= -0.00191259)

STATE  6:  E=   0.374408 au     10.188 eV    82173.0 cm**-1 <S**2> =   0.000000 Mult 1
     2a ->  20a  :     0.000002 (c=  0.00143995)
     3a ->  20a  :     0.000086 (c=  0.00925864)
     3a ->  29a  :     0.000003 (c= -0.00162717)
     3a ->  36a  :     0.000012 (c=  0.00351365)
     4a ->   8a  :     0.995326 (c=  0.99766044)
     4a ->  13a  :     0.001974 (c=  0.04443437)
     4a ->  19a  :     0.000258 (c=  0.01605648)
     4a ->  28a  :     0.000082 (c=  0.00906731)
     4a ->  34a  :     0.000032 (c= -0.00567959)
     4a ->  35a  :     0.000002 (c=  0.00140416)
     4a ->  44a  :     0.000002 (c= -0.00143561)
     4a ->  50a  :     0.000003 (c=  0.00175014)
     5a ->  20a  :     0.000002 (c= -0.00123070)
     5a ->  29a  :     0.000014 (c=  0.00379315)
     6a ->  11a  :     0.000779 (c=  0.02790244)
     6a ->  14a  :     0.000076 (c= -0.00871306)
     6a ->  17a  :     0.000072 (c= -0.00847417)
     6a ->  21a  :     0.000016 (c=  0.00400684)
     6a ->  25a  :     0.000002 (c= -0.00130101)
     6a ->  31a  :     0.000002 (c=  0.00126353)
     6a ->  32a  :     0.000003 (c=  0.00169398)
     6a ->  38a  :     0.000002 (c= -0.00140280)
     6a ->  40a  :     0.000001 (c=  0.00115104)
     7a ->   8a  :     0.000984 (c=  0.03136621)
     7a ->  13a  :     0.000032 (c=  0.00567999)
     7a ->  19a  :     0.000136 (c= -0.01165386)
     7a ->  23a  :     0.000036 (c=  0.00599757)
     7a ->  28a  :     0.000018 (c=  0.00421880)
     7a ->  34a  :     0.000027 (c= -0.00519676)
     7a ->  44a  :     0.000006 (c=  0.00246191)
     7a ->  60a  :     0.000001 (c= -0.00114218)

STATE  7:  E=   0.390767 au     10.633 eV    85763.3 cm**-1 <S**2> =   0.000000 Mult 1
     2a ->   9a  :     0.000034 (c= -0.00583210)
     2a ->  10a  :     0.001032 (c=  0.03211744)
     2a ->  15a  :     0.000097 (c=  0.00984491)
     2a ->  16a  :     0.000143 (c=  0.01197100)
     2a ->  18a  :     0.001049 (c=  0.03238270)
     2a ->  22a  :     0.000146 (c= -0.01209961)
     2a ->  24a  :     0.000002 (c= -0.00137906)
     2a ->  26a  :     0.000331 (c= -0.01819443)
     2a ->  27a  :     0.000006 (c=  0.00249772)
     2a ->  30a  :     0.000006 (c= -0.00247836)
     2a ->  33a  :     0.000004 (c=  0.00208851)
     2a ->  37a  :     0.000002 (c= -0.00138543)
     2a ->  39a  :     0.000002 (c=  0.00147925)
     2a ->  46a  :     0.000005 (c=  0.00214272)
     2a ->  48a  :     0.000012 (c= -0.00352279)
     2a ->  55a  :     0.000005 (c= -0.00214030)
     2a ->  59a  :     0.000002 (c=  0.00132700)
     3a ->   9a  :     0.002924 (c= -0.05407365)
     3a ->  10a  :     0.002393 (c= -0.04891870)
     3a ->  12a  :     0.000048 (c=  0.00696405)
     3a ->  15a  :     0.000031 (c= -0.00553040)
     3a ->  16a  :     0.000072 (c=  0.00849699)
     3a ->  18a  :     0.000063 (c= -0.00790795)
     3a ->  22a  :     0.000240 (c=  0.01548615)
     3a ->  24a  :     0.000004 (c=  0.00189590)
     3a ->  26a  :     0.000001 (c= -0.00120436)
     3a ->  27a  :     0.000011 (c=  0.00327798)
     3a ->  39a  :     0.000005 (c=  0.00227039)
     3a ->  41a  :     0.000002 (c=  0.00124381)
     3a ->  43a  :     0.000002 (c=  0.00125771)
     3a ->  46a  :     0.000004 (c= -0.00208150)
     3a ->  48a  :     0.000002 (c=  0.00124230)
     3a ->  58a  :     0.000002 (c=  0.00125036)
     4a ->  11a  :     0.010654 (c= -0.10321750)
     4a ->  14a  :     0.000777 (c=  0.02787509)
     4a ->  17a  :     0.000203 (c=  0.01423985)
     4a ->  21a  :     0.001095 (c= -0.03309561)
     4a ->  25a  :     0.000008 (c= -0.00289276)
     4a ->  31a  :     0.000017 (c=  0.00407597)
     4a ->  38a  :     0.000007 (c=  0.00262459)
     4a ->  42a  :     0.000004 (c=  0.00191499)
     4a ->  49a  :     0.000005 (c=  0.00220154)
     4a ->  51a  :     0.000003 (c=  0.00173150)
     4a ->  61a  :     0.000001 (c=  0.00106865)
     5a ->   9a  :     0.009958 (c= -0.09978969)
     5a ->  10a  :     0.003981 (c=  0.06309814)
     5a ->  12a  :     0.000924 (c=  0.03039714)
     5a ->  15a  :     0.001536 (c= -0.03918895)
     5a ->  16a  :     0.002541 (c=  0.05040924)
     5a ->  18a  :     0.011492 (c=  0.10720179)
     5a ->  22a  :     0.000697 (c=  0.02639509)
     5a ->  24a  :     0.000060 (c=  0.00777174)
     5a ->  26a  :     0.000893 (c= -0.02989118)
     5a ->  27a  :     0.000014 (c=  0.00371371)
     5a ->  30a  :     0.000002 (c=  0.00155431)
     5a ->  33a  :     0.000002 (c= -0.00148596)
     5a ->  37a  :     0.000009 (c= -0.00299488)
     5a ->  39a  :     0.000028 (c=  0.00532802)
     5a ->  41a  :     0.000004 (c=  0.00204616)
     5a ->  43a  :     0.000001 (c=  0.00117971)
     5a ->  46a  :     0.000017 (c= -0.00413931)
     5a ->  48a  :     0.000004 (c= -0.00188491)
     5a ->  63a  :     0.000001 (c= -0.00118020)
     6a ->   8a  :     0.583394 (c= -0.76380213)
     6a ->  13a  :     0.001033 (c=  0.03214173)
     6a ->  19a  :     0.002863 (c=  0.05350800)
     6a ->  23a  :     0.000099 (c= -0.00996965)
     6a ->  35a  :     0.000001 (c= -0.00122226)
     6a ->  44a  :     0.000010 (c= -0.00322479)
     6a ->  60a  :     0.000002 (c=  0.00146080)
     6a ->  64a  :     0.000001 (c=  0.00118610)
     7a ->  11a  :     0.215763 (c= -0.46450248)
     7a ->  14a  :     0.129719 (c= -0.36016541)
     7a ->  17a  :     0.008179 (c= -0.09043537)
     7a ->  21a  :     0.003327 (c=  0.05767990)
     7a ->  25a  :     0.001766 (c= -0.04202257)
     7a ->  31a  :     0.000004 (c=  0.00195637)
     7a ->  32a  :     0.000134 (c=  0.01158319)
     7a ->  40a  :     0.000005 (c= -0.00221722)
     7a ->  42a  :     0.000027 (c= -0.00519225)
     7a ->  49a  :     0.000035 (c= -0.00591460)
     7a ->  51a  :     0.000002 (c=  0.00153548)
     7a ->  61a  :     0.000004 (c= -0.00199165)

STATE  8:  E=   0.417643 au     11.365 eV    91662.1 cm**-1 <S**2> =   0.000000 Mult 1
     2a ->   8a  :     0.000031 (c=  0.00556721)
     2a ->  13a  :     0.000002 (c=  0.00131379)
     2a ->  23a  :     0.000002 (c= -0.00144826)
     3a ->   8a  :     0.005973 (c=  0.07728673)
     3a ->  13a  :     0.000103 (c=  0.01015890)
     3a ->  19a  :     0.000003 (c=  0.00168014)
     3a ->  23a  :     0.000010 (c=  0.00309188)
     3a ->  28a  :     0.000002 (c=  0.00155526)
     3a ->  47a  :     0.000001 (c= -0.00103684)
     4a ->  20a  :     0.000092 (c= -0.00960164)
     4a ->  29a  :     0.000001 (c=  0.00102380)
     4a ->  45a  :     0.000005 (c= -0.00227734)
     5a ->   8a  :     0.000036 (c=  0.00601703)
     5a ->  13a  :     0.000022 (c=  0.00472027)
     5a ->  19a  :     0.000004 (c=  0.00205426)
     5a ->  23a  :     0.000023 (c= -0.00482128)
     5a ->  44a  :     0.000001 (c= -0.00106707)
     5a ->  47a  :     0.000003 (c=  0.00173493)
     6a ->   9a  :     0.988386 (c=  0.99417598)
     6a ->  10a  :     0.004525 (c=  0.06726707)
     6a ->  12a  :     0.000074 (c= -0.00858973)
     6a ->  15a  :     0.000038 (c= -0.00615553)
     6a ->  16a  :     0.000528 (c= -0.02297275)
     6a ->  18a  :     0.000047 (c=  0.00688064)
     6a ->  22a  :     0.000008 (c= -0.00276622)
     6a ->  26a  :     0.000001 (c= -0.00104587)
     6a ->  27a  :     0.000021 (c= -0.00454213)
     6a ->  30a  :     0.000005 (c= -0.00221585)
     6a ->  43a  :     0.000001 (c=  0.00109531)
     6a ->  53a  :     0.000002 (c=  0.00143798)
     7a ->  20a  :     0.000040 (c= -0.00628975)
     7a ->  52a  :     0.000001 (c=  0.00101327)

STATE  9:  E=   0.429753 au     11.694 eV    94319.9 cm**-1 <S**2> =   0.000000 Mult 1
     3a ->  45a  :     0.000002 (c= -0.00143256)
     4a ->   8a  :     0.000027 (c= -0.00520739)
     4a ->  13a  :     0.000184 (c=  0.01356802)
     4a ->  19a  :     0.000110 (c=  0.01049386)
     4a ->  23a  :     0.000006 (c=  0.00236609)
     4a ->  28a  :     0.000003 (c=  0.00178099)
     4a ->  35a  :     0.000003 (c=  0.00172966)
     4a ->  47a  :     0.000002 (c= -0.00141658)
     6a ->  11a  :     0.000115 (c= -0.01072337)
     6a ->  14a  :     0.000014 (c=  0.00372154)
     6a ->  17a  :     0.000003 (c= -0.00181180)
     6a ->  21a  :     0.000002 (c= -0.00145673)
     7a ->   8a  :     0.001153 (c= -0.03396232)
     7a ->  13a  :     0.998131 (c=  0.99906495)
     7a ->  19a  :     0.000126 (c= -0.01123481)
     7a ->  23a  :     0.000046 (c= -0.00679109)
     7a ->  28a  :     0.000060 (c=  0.00773990)
     7a ->  34a  :     0.000002 (c=  0.00125161)
     7a ->  35a  :     0.000004 (c= -0.00191941)

STATE 10:  E=   0.439739 au     11.966 eV    96511.5 cm**-1 <S**2> =   0.000000 Mult 1
     2a ->  11a  :     0.000027 (c= -0.00521083)
     2a ->  14a  :     0.000002 (c=  0.00145574)
     2a ->  17a  :     0.000010 (c=  0.00319697)
     2a ->  21a  :     0.000003 (c= -0.00182807)
     2a ->  25a  :     0.000004 (c=  0.00202330)
     3a ->  11a  :     0.000096 (c= -0.00977651)
     3a ->  14a  :     0.000047 (c= -0.00686770)
     3a ->  17a  :     0.000173 (c= -0.01314699)
     3a ->  25a  :     0.000068 (c= -0.00827041)
     3a ->  31a  :     0.000012 (c= -0.00351104)
     3a ->  38a  :     0.000001 (c= -0.00104026)
     3a ->  40a  :     0.000004 (c=  0.00202967)
     3a ->  42a  :     0.000001 (c= -0.00102249)
     4a ->   9a  :     0.006258 (c=  0.07910859)
     4a ->  10a  :     0.000017 (c=  0.00415851)
     4a ->  12a  :     0.000337 (c=  0.01836969)
     4a ->  15a  :     0.000081 (c= -0.00897965)
     4a ->  16a  :     0.000689 (c= -0.02623932)
     4a ->  18a  :     0.000445 (c=  0.02108707)
     4a ->  22a  :     0.000008 (c= -0.00280244)
     4a ->  24a  :     0.000115 (c=  0.01071983)
     4a ->  26a  :     0.000002 (c=  0.00141708)
     4a ->  33a  :     0.000018 (c= -0.00427446)
     4a ->  37a  :     0.000009 (c= -0.00304555)
     4a ->  43a  :     0.000004 (c= -0.00199279)
     4a ->  48a  :     0.000001 (c=  0.00112687)
     5a ->  11a  :     0.000224 (c= -0.01497390)
     5a ->  14a  :     0.000006 (c=  0.00253899)
     5a ->  17a  :     0.000260 (c=  0.01612522)
     5a ->  25a  :     0.000019 (c=  0.00437761)
     5a ->  31a  :     0.000002 (c=  0.00134164)
     5a ->  32a  :     0.000002 (c=  0.00150904)
     5a ->  38a  :     0.000003 (c=  0.00175557)
     5a ->  40a  :     0.000002 (c= -0.00135457)
     5a ->  42a  :     0.000001 (c=  0.00109179)
     6a ->  20a  :     0.000287 (c= -0.01693941)
     6a ->  29a  :     0.000007 (c=  0.00260089)
     6a ->  45a  :     0.000004 (c= -0.00202116)
     7a ->   9a  :     0.001308 (c= -0.03616412)
     7a ->  10a  :     0.000095 (c=  0.00974301)
     7a ->  12a  :     0.986849 (c= -0.99340252)
     7a ->  15a  :     0.000160 (c= -0.01263371)
     7a ->  16a  :     0.002091 (c= -0.04572731)
     7a ->  18a  :     0.000004 (c= -0.00188517)
     7a ->  22a  :     0.000010 (c=  0.00322842)
     7a ->  24a  :     0.000168 (c= -0.01296214)
     7a ->  26a  :     0.000015 (c=  0.00384006)
     7a ->  27a  :     0.000002 (c= -0.00154955)
     7a ->  30a  :     0.000006 (c= -0.00252168)
     7a ->  33a  :     0.000009 (c= -0.00305222)
     7a ->  37a  :     0.000019 (c= -0.00439470)
     7a ->  41a  :     0.000003 (c= -0.00167288)
     7a ->  43a  :     0.000001 (c= -0.00100472)

STATE 11:  E=   0.470376 au     12.800 eV   103235.6 cm**-1 <S**2> =   0.000000 Mult 1
     2a ->   8a  :     0.000362 (c=  0.01901817)
     2a ->  13a  :     0.000032 (c=  0.00567268)
     2a ->  19a  :     0.000027 (c=  0.00520655)
     2a ->  23a  :     0.000005 (c= -0.00212654)
     2a ->  44a  :     0.000008 (c= -0.00285354)
     3a ->   8a  :     0.015219 (c=  0.12336462)
     3a ->  13a  :     0.000106 (c=  0.01028263)
     3a ->  19a  :     0.000020 (c= -0.00443968)
     3a ->  23a  :     0.000025 (c=  0.00495396)
     3a ->  35a  :     0.000001 (c=  0.00103267)
     3a ->  44a  :     0.000002 (c=  0.00139386)
     4a ->  20a  :     0.000253 (c= -0.01589497)
     4a ->  29a  :     0.000002 (c=  0.00149413)
     4a ->  36a  :     0.000001 (c=  0.00117937)
     4a ->  45a  :     0.000002 (c= -0.00133791)
     4a ->  66a  :     0.000002 (c=  0.00123775)
     5a ->   8a  :     0.000377 (c=  0.01942339)
     5a ->  13a  :     0.000095 (c=  0.00972677)
     5a ->  19a  :     0.000034 (c= -0.00582424)
     5a ->  23a  :     0.000015 (c= -0.00391093)
     5a ->  35a  :     0.000004 (c=  0.00201419)
     5a ->  64a  :     0.000002 (c= -0.00154740)
     5a ->  69a  :     0.000002 (c= -0.00150904)
     6a ->   9a  :     0.003215 (c=  0.05670536)
     6a ->  10a  :     0.979526 (c= -0.98971005)
     6a ->  12a  :     0.000215 (c= -0.01466731)
     6a ->  15a  :     0.000050 (c=  0.00706706)
     6a ->  16a  :     0.000005 (c= -0.00220597)
     6a ->  18a  :     0.000145 (c= -0.01204211)
     6a ->  22a  :     0.000074 (c=  0.00862513)
     6a ->  24a  :     0.000042 (c= -0.00649359)
     6a ->  27a  :     0.000004 (c= -0.00193666)
     6a ->  30a  :     0.000005 (c= -0.00234272)
     6a ->  33a  :     0.000001 (c=  0.00103997)
     6a ->  41a  :     0.000002 (c= -0.00130608)
     6a ->  68a  :     0.000004 (c= -0.00204760)
     7a ->  20a  :     0.000097 (c= -0.00983427)
     7a ->  36a  :     0.000003 (c= -0.00162729)
     7a ->  66a  :     0.000006 (c= -0.00252788)

STATE 12:  E=   0.472275 au     12.851 eV   103652.3 cm**-1 <S**2> =   0.000000 Mult 1
     3a ->  20a  :     0.000024 (c=  0.00486878)
     4a ->   8a  :     0.000790 (c=  0.02811200)
     4a ->  13a  :     0.000008 (c=  0.00286360)
     4a ->  28a  :     0.000001 (c=  0.00115343)
     4a ->  34a  :     0.000002 (c= -0.00145222)
     5a ->  20a  :     0.000002 (c= -0.00140985)
     5a ->  29a  :     0.000003 (c=  0.00166941)
     6a ->  11a  :     0.995805 (c= -0.99790034)
     6a ->  14a  :     0.000410 (c= -0.02024372)
     6a ->  17a  :     0.002591 (c=  0.05090156)
     6a ->  21a  :     0.000182 (c= -0.01349651)
     6a ->  25a  :     0.000003 (c=  0.00183855)
     6a ->  31a  :     0.000031 (c=  0.00554416)
     6a ->  42a  :     0.000003 (c=  0.00182316)
     7a ->  13a  :     0.000108 (c= -0.01041277)
     7a ->  19a  :     0.000020 (c=  0.00449643)
     7a ->  23a  :     0.000007 (c= -0.00267220)
     7a ->  34a  :     0.000001 (c= -0.00101204)

STATE 13:  E=   0.474691 au     12.917 eV   104182.7 cm**-1 <S**2> =   0.000000 Mult 1
     2a ->   9a  :     0.000138 (c=  0.01174590)
     2a ->  10a  :     0.000007 (c=  0.00269269)
     2a ->  12a  :     0.000002 (c= -0.00142680)
     2a ->  15a  :     0.000002 (c= -0.00134041)
     2a ->  16a  :     0.000030 (c= -0.00549625)
     2a ->  22a  :     0.000007 (c= -0.00260053)
     2a ->  27a  :     0.000007 (c= -0.00263478)
     3a ->   9a  :     0.000799 (c=  0.02826853)
     3a ->  10a  :     0.000037 (c=  0.00608845)
     3a ->  12a  :     0.000002 (c= -0.00150981)
     3a ->  15a  :     0.000038 (c= -0.00619314)
     3a ->  16a  :     0.000139 (c= -0.01178365)
     3a ->  18a  :     0.000175 (c=  0.01322666)
     3a ->  22a  :     0.000005 (c=  0.00227301)
     3a ->  24a  :     0.000003 (c= -0.00171774)
     3a ->  27a  :     0.000017 (c= -0.00410554)
     3a ->  30a  :     0.000002 (c= -0.00153969)
     3a ->  33a  :     0.000002 (c= -0.00131365)
     3a ->  48a  :     0.000002 (c=  0.00125210)
     4a ->  11a  :     0.003256 (c=  0.05705804)
     4a ->  14a  :     0.000328 (c=  0.01811315)
     4a ->  17a  :     0.000144 (c= -0.01201562)
     4a ->  21a  :     0.000007 (c=  0.00272858)
     4a ->  25a  :     0.000101 (c=  0.01002701)
     4a ->  31a  :     0.000018 (c= -0.00421386)
     4a ->  32a  :     0.000008 (c= -0.00286202)
     4a ->  38a  :     0.000001 (c= -0.00108852)
     4a ->  40a  :     0.000003 (c= -0.00177308)
     4a ->  42a  :     0.000002 (c=  0.00130974)
     4a ->  51a  :     0.000001 (c= -0.00113143)
     5a ->   9a  :     0.930745 (c=  0.96475121)
     5a ->  10a  :     0.000012 (c= -0.00345832)
     5a ->  12a  :     0.000080 (c=  0.00893291)
     5a ->  15a  :     0.000057 (c= -0.00754528)
     5a ->  16a  :     0.000283 (c= -0.01681733)
     5a ->  18a  :     0.000050 (c= -0.00706867)
     5a ->  24a  :     0.000029 (c=  0.00536119)
     5a ->  26a  :     0.000001 (c= -0.00103445)
     5a ->  27a  :     0.000007 (c= -0.00269223)
     5a ->  30a  :     0.000002 (c= -0.00131415)
     5a ->  33a  :     0.000001 (c= -0.00105609)
     5a ->  37a  :     0.000005 (c=  0.00214101)
     5a ->  39a  :     0.000010 (c= -0.00309530)
     5a ->  48a  :     0.000002 (c= -0.00128845)
     6a ->   8a  :     0.000006 (c=  0.00238166)
     6a ->  13a  :     0.003462 (c= -0.05883897)
     6a ->  19a  :     0.000021 (c=  0.00453332)
     6a ->  23a  :     0.000041 (c= -0.00641074)
     6a ->  28a  :     0.000037 (c= -0.00609088)
     6a ->  35a  :     0.000006 (c= -0.00249304)
     7a ->  11a  :     0.001757 (c= -0.04191211)
     7a ->  14a  :     0.057376 (c= -0.23953201)
     7a ->  17a  :     0.000477 (c= -0.02185175)
     7a ->  21a  :     0.000219 (c=  0.01480953)
     7a ->  32a  :     0.000011 (c=  0.00328902)
     7a ->  40a  :     0.000005 (c= -0.00221114)
     7a ->  42a  :     0.000002 (c=  0.00146102)
     7a ->  49a  :     0.000002 (c= -0.00150556)
     7a ->  51a  :     0.000001 (c= -0.00104977)

STATE 14:  E=   0.512629 au     13.949 eV   112509.1 cm**-1 <S**2> =   0.000000 Mult 1
     2a ->   9a  :     0.000003 (c=  0.00169249)
     2a ->  10a  :     0.000744 (c= -0.02727869)
     2a ->  12a  :     0.000005 (c=  0.00226024)
     2a ->  15a  :     0.000042 (c= -0.00649438)
     2a ->  16a  :     0.000036 (c= -0.00601049)
     2a ->  18a  :     0.000564 (c= -0.02374124)
     2a ->  22a  :     0.000134 (c=  0.01157146)
     2a ->  24a  :     0.000016 (c=  0.00395663)
     2a ->  26a  :     0.000110 (c=  0.01047060)
     2a ->  46a  :     0.000013 (c= -0.00360180)
     2a ->  48a  :     0.000010 (c=  0.00314227)
     2a ->  55a  :     0.000003 (c=  0.00167446)
     2a ->  59a  :     0.000002 (c= -0.00126426)
     3a ->   9a  :     0.000212 (c= -0.01455876)
     3a ->  10a  :     0.000830 (c=  0.02881820)
     3a ->  12a  :     0.000006 (c=  0.00244672)
     3a ->  15a  :     0.000293 (c=  0.01711131)
     3a ->  16a  :     0.000038 (c=  0.00619728)
     3a ->  18a  :     0.000014 (c=  0.00372223)
     3a ->  22a  :     0.000129 (c= -0.01137018)
     3a ->  24a  :     0.000028 (c= -0.00528260)
     3a ->  26a  :     0.000014 (c=  0.00376549)
     3a ->  27a  :     0.000006 (c=  0.00250285)
     3a ->  33a  :     0.000001 (c=  0.00120092)
     3a ->  39a  :     0.000001 (c= -0.00118159)
     3a ->  46a  :     0.000013 (c=  0.00360807)
     4a ->  11a  :     0.005307 (c=  0.07285167)
     4a ->  14a  :     0.001960 (c= -0.04427314)
     4a ->  17a  :     0.000005 (c=  0.00221483)
[...]
  0-1A  -> 40-1A   21.375474  172404.8    58.0   0.000000000   0.00000  -0.00000  -0.00000  -0.00000
  0-1A  -> 41-1A   21.563842  173924.1    57.5   0.032910004   0.03912   0.00000   0.00000   0.19779
  0-1A  -> 42-1A   21.626076  174426.1    57.3   0.068700293   0.08190   0.28618   0.00000  -0.00000
  0-1A  -> 43-1A   21.804406  175864.4    56.9   0.035775796   0.04300   0.20737  -0.00000  -0.00000
  0-1A  -> 44-1A   21.841744  176165.6    56.8   0.000004035   0.00000  -0.00000   0.00000   0.00220
  0-1A  -> 45-1A   22.442440  181010.5    55.2   0.000422926   0.00052  -0.00000  -0.00000  -0.02287
  0-1A  -> 46-1A   22.463449  181180.0    55.2   0.022436019   0.02778   0.16668   0.00000  -0.00000
  0-1A  -> 47-1A   22.661299  182775.7    54.7   0.040393977   0.05046   0.22463   0.00000  -0.00000
  0-1A  -> 48-1A   22.964864  185224.1    54.0   0.000729868   0.00092  -0.00000  -0.03040   0.00000
  0-1A  -> 49-1A   23.183373  186986.5    53.5   0.000068299   0.00009  -0.00000  -0.00934   0.00000
  0-1A  -> 50-1A   23.208995  187193.2    53.4   0.019135318   0.02448  -0.00000  -0.15646   0.00000

------------------------------------------------------------------------------------------
                     CD SPECTRUM VIA TRANSITION ELECTRIC DIPOLE MOMENTS    
------------------------------------------------------------------------------------------
     Transition      Energy     Energy  Wavelength    R        MX        MY        MZ   
                      (eV)      (cm-1)    (nm)   (1e40*cgs)   (au)      (au)      (au)  
------------------------------------------------------------------------------------------
  0-1A  ->  1-1A    4.039005   32576.8   307.0    0.00001  -0.59090  -0.00000   0.00001
  0-1A  ->  2-1A    7.924339   63914.1   156.5   -0.00001   0.00000   0.00001   0.41243
  0-1A  ->  3-1A    9.112818   73499.8   136.1   -0.00013  -0.00001  -0.00001  -0.50403
  0-1A  ->  4-1A    9.200573   74207.6   134.8    0.00012   0.00000  -0.71103   0.00001
  0-1A  ->  5-1A    9.435408   76101.7   131.4    0.00001  -0.00000  -0.00000   0.00000
  0-1A  ->  6-1A   10.188150   82173.0   121.7   -0.00012   0.32262   0.00000  -0.00000
  0-1A  ->  7-1A   10.633297   85763.3   116.6    0.00011   0.00000  -0.00000   0.00000
  0-1A  ->  8-1A   11.364651   91662.1   109.1    0.00000  -0.00000   0.05745  -0.00000
  0-1A  ->  9-1A   11.694176   94319.9   106.0    0.00000  -0.02140  -0.00000   0.00000
  0-1A  -> 10-1A   11.965899   96511.5   103.6    0.00004   0.00000   0.00001   0.30219
  0-1A  -> 11-1A   12.799580  103235.6    96.9   -0.00004  -0.00000  -0.01140   0.00000
  0-1A  -> 12-1A   12.851251  103652.3    96.5   -0.00000   0.00891   0.00000  -0.00000
  0-1A  -> 13-1A   12.917006  104182.7    96.0   -0.00000  -0.00000   0.00000  -0.00000
  0-1A  -> 14-1A   13.949345  112509.1    88.9    0.00000  -0.00000   0.00000  -0.00000
  0-1A  -> 15-1A   13.973953  112707.5    88.7    0.00001   0.00000   0.00001   0.33193
  0-1A  -> 16-1A   14.279399  115171.1    86.8   -0.00000   0.00000   0.00000  -0.00000
  0-1A  -> 17-1A   14.371405  115913.2    86.3   -0.00001   0.00000   0.00000   0.14002
  0-1A  -> 18-1A   15.051951  121402.2    82.4    0.00002  -0.00000   0.23527  -0.00000
  0-1A  -> 19-1A   15.271522  123173.1    81.2   -0.00000   0.00000  -0.00000   0.00000
  0-1A  -> 20-1A   15.358318  123873.2    80.7   -0.00006   0.00000   0.00001   0.33227
  0-1A  -> 21-1A   15.811126  127525.3    78.4   -0.00001   0.00000  -0.17416   0.00000
  0-1A  -> 22-1A   16.448977  132670.0    75.4   -0.00000  -0.00000   0.00000  -0.00000
  0-1A  -> 23-1A   16.593842  133838.4    74.7   -0.00001   0.00000   0.00001   0.24500
  0-1A  -> 24-1A   16.710605  134780.1    74.2    0.00000  -0.01872  -0.00000  -0.00000
  0-1A  -> 25-1A   16.812448  135601.6    73.7    0.00007  -0.00000  -0.10031   0.00000
  0-1A  -> 26-1A   16.921892  136484.3    73.3   -0.00000  -0.00000   0.00000   0.00000
  0-1A  -> 27-1A   17.603157  141979.1    70.4   -0.00000  -0.00000  -0.00000  -0.03136
  0-1A  -> 28-1A   17.680868  142605.8    70.1    0.00000   0.01357  -0.00000  -0.00000
  0-1A  -> 29-1A   18.147493  146369.4    68.3    0.00000   0.00000   0.00000   0.17682
  0-1A  -> 30-1A   18.363449  148111.2    67.5   -0.00004  -0.00000  -0.00001  -0.23391
  0-1A  -> 31-1A   18.639551  150338.1    66.5    0.00000   0.00000  -0.00000  -0.00000
  0-1A  -> 32-1A   18.699076  150818.2    66.3   -0.00000  -0.00000   0.00000  -0.00000
  0-1A  -> 33-1A   19.080816  153897.2    65.0    0.00001  -0.00000  -0.00001  -0.30543
  0-1A  -> 34-1A   19.259478  155338.2    64.4   -0.00002  -0.03647   0.00000   0.00000
  0-1A  -> 35-1A   19.352368  156087.4    64.1    0.00001  -0.00000  -0.00000  -0.07009
  0-1A  -> 36-1A   19.395794  156437.6    63.9    0.00001  -0.00000   0.00000  -0.00000
  0-1A  -> 37-1A   19.632668  158348.2    63.2    0.00000   0.00000  -0.00000  -0.00000
  0-1A  -> 38-1A   20.258678  163397.3    61.2   -0.00001   0.00000   0.01078  -0.00000
  0-1A  -> 39-1A   21.051967  169795.6    58.9    0.00000   0.00000   0.02904  -0.00000
  0-1A  -> 40-1A   21.375474  172404.8    58.0    0.00001  -0.05238  -0.00000   0.00000
  0-1A  -> 41-1A   21.563842  173924.1    57.5    0.00005   0.00000   0.52941  -0.00001
  0-1A  -> 42-1A   21.626076  174426.1    57.3   -0.00000  -0.00000  -0.00000  -0.00000
  0-1A  -> 43-1A   21.804406  175864.4    56.9   -0.00000  -0.00000  -0.00000   0.00000
  0-1A  -> 44-1A   21.841744  176165.6    56.8    0.00000  -0.00000  -0.28333   0.00001
  0-1A  -> 45-1A   22.442440  181010.5    55.2    0.00002  -0.00000   0.32859  -0.00001
  0-1A  -> 46-1A   22.463449  181180.0    55.2    0.00000   0.00000   0.00000  -0.00000
  0-1A  -> 47-1A   22.661299  182775.7    54.7   -0.00000  -0.00000   0.00000  -0.00000
  0-1A  -> 48-1A   22.964864  185224.1    54.0    0.00002  -0.00000  -0.00001  -0.33367
  0-1A  -> 49-1A   23.183373  186986.5    53.5    0.00001  -0.00000  -0.00000  -0.19837
  0-1A  -> 50-1A   23.208995  187193.2    53.4    0.00001   0.00000   0.00000   0.06080

------------------------------------------------------------------------------------------
                     CD SPECTRUM VIA TRANSITION VELOCITY DIPOLE MOMENTS    
------------------------------------------------------------------------------------------
     Transition      Energy     Energy  Wavelength    R        MX        MY        MZ   
                      (eV)      (cm-1)    (nm)   (1e40*cgs)   (au)      (au)      (au)  
------------------------------------------------------------------------------------------
  0-1A  ->  1-1A    4.039005   32576.8   307.0    0.00002  -0.59090  -0.00000   0.00001
  0-1A  ->  2-1A    7.924339   63914.1   156.5   -0.00001   0.00000   0.00001   0.41243
  0-1A  ->  3-1A    9.112818   73499.8   136.1   -0.00018  -0.00001  -0.00001  -0.50403
  0-1A  ->  4-1A    9.200573   74207.6   134.8    0.00015   0.00000  -0.71103   0.00001
  0-1A  ->  5-1A    9.435408   76101.7   131.4    0.00002  -0.00000  -0.00000   0.00000
  0-1A  ->  6-1A   10.188150   82173.0   121.7   -0.00006   0.32262   0.00000  -0.00000
  0-1A  ->  7-1A   10.633297   85763.3   116.6    0.00005   0.00000  -0.00000   0.00000
  0-1A  ->  8-1A   11.364651   91662.1   109.1    0.00001  -0.00000   0.05745  -0.00000
  0-1A  ->  9-1A   11.694176   94319.9   106.0   -0.00000  -0.02140  -0.00000   0.00000
  0-1A  -> 10-1A   11.965899   96511.5   103.6    0.00004   0.00000   0.00001   0.30219
  0-1A  -> 11-1A   12.799580  103235.6    96.9   -0.00004  -0.00000  -0.01140   0.00000
  0-1A  -> 12-1A   12.851251  103652.3    96.5   -0.00000   0.00891   0.00000  -0.00000
  0-1A  -> 13-1A   12.917006  104182.7    96.0   -0.00000  -0.00000   0.00000  -0.00000
  0-1A  -> 14-1A   13.949345  112509.1    88.9    0.00000  -0.00000   0.00000  -0.00000
  0-1A  -> 15-1A   13.973953  112707.5    88.7    0.00001   0.00000   0.00001   0.33193
  0-1A  -> 16-1A   14.279399  115171.1    86.8   -0.00000   0.00000   0.00000  -0.00000
  0-1A  -> 17-1A   14.371405  115913.2    86.3   -0.00000   0.00000   0.00000   0.14002
  0-1A  -> 18-1A   15.051951  121402.2    82.4    0.00002  -0.00000   0.23527  -0.00000
  0-1A  -> 19-1A   15.271522  123173.1    81.2   -0.00000   0.00000  -0.00000   0.00000
  0-1A  -> 20-1A   15.358318  123873.2    80.7   -0.00005   0.00000   0.00001   0.33227
  0-1A  -> 21-1A   15.811126  127525.3    78.4   -0.00001   0.00000  -0.17416   0.00000
  0-1A  -> 22-1A   16.448977  132670.0    75.4    0.00000  -0.00000   0.00000  -0.00000
  0-1A  -> 23-1A   16.593842  133838.4    74.7   -0.00001   0.00000   0.00001   0.24500
  0-1A  -> 24-1A   16.710605  134780.1    74.2    0.00000  -0.01872  -0.00000  -0.00000
  0-1A  -> 25-1A   16.812448  135601.6    73.7    0.00005  -0.00000  -0.10031   0.00000
  0-1A  -> 26-1A   16.921892  136484.3    73.3   -0.00000  -0.00000   0.00000   0.00000
  0-1A  -> 27-1A   17.603157  141979.1    70.4   -0.00000  -0.00000  -0.00000  -0.03136
  0-1A  -> 28-1A   17.680868  142605.8    70.1    0.00000   0.01357  -0.00000  -0.00000
  0-1A  -> 29-1A   18.147493  146369.4    68.3    0.00000   0.00000   0.00000   0.17682
  0-1A  -> 30-1A   18.363449  148111.2    67.5   -0.00002  -0.00000  -0.00001  -0.23391
  0-1A  -> 31-1A   18.639551  150338.1    66.5    0.00000   0.00000  -0.00000  -0.00000
  0-1A  -> 32-1A   18.699076  150818.2    66.3   -0.00000  -0.00000   0.00000  -0.00000
  0-1A  -> 33-1A   19.080816  153897.2    65.0    0.00000  -0.00000  -0.00001  -0.30543
  0-1A  -> 34-1A   19.259478  155338.2    64.4   -0.00001  -0.03647   0.00000   0.00000
  0-1A  -> 35-1A   19.352368  156087.4    64.1    0.00002  -0.00000  -0.00000  -0.07009
  0-1A  -> 36-1A   19.395794  156437.6    63.9    0.00001  -0.00000   0.00000  -0.00000
  0-1A  -> 37-1A   19.632668  158348.2    63.2   -0.00000   0.00000  -0.00000  -0.00000
  0-1A  -> 38-1A   20.258678  163397.3    61.2   -0.00000   0.00000   0.01078  -0.00000
  0-1A  -> 39-1A   21.051967  169795.6    58.9    0.00000   0.00000   0.02904  -0.00000
  0-1A  -> 40-1A   21.375474  172404.8    58.0    0.00001  -0.05238  -0.00000   0.00000
  0-1A  -> 41-1A   21.563842  173924.1    57.5    0.00002   0.00000   0.52941  -0.00001
  0-1A  -> 42-1A   21.626076  174426.1    57.3   -0.00000  -0.00000  -0.00000  -0.00000
  0-1A  -> 43-1A   21.804406  175864.4    56.9   -0.00000  -0.00000  -0.00000   0.00000
  0-1A  -> 44-1A   21.841744  176165.6    56.8   -0.00000  -0.00000  -0.28333   0.00001
  0-1A  -> 45-1A   22.442440  181010.5    55.2    0.00002  -0.00000   0.32859  -0.00001
  0-1A  -> 46-1A   22.463449  181180.0    55.2    0.00000   0.00000   0.00000  -0.00000
  0-1A  -> 47-1A   22.661299  182775.7    54.7   -0.00000  -0.00000   0.00000  -0.00000
  0-1A  -> 48-1A   22.964864  185224.1    54.0    0.00001  -0.00000  -0.00001  -0.33367
  0-1A  -> 49-1A   23.183373  186986.5    53.5    0.00000  -0.00000  -0.00000  -0.19837
  0-1A  -> 50-1A   23.208995  187193.2    53.4    0.00000   0.00000   0.00000   0.06080

Total run time:        1.901 sec

           *** ORCA-CIS/TD-DFT FINISHED WITHOUT ERROR ***
-----------------------
CIS/TD-DFT TOTAL ENERGY
-----------------------

    E(SCF)  =   -114.495087913 Eh
    DE(CIS) =      0.148430703 Eh (Root  1)
    ----------------------------- ---------
    E(tot)  =   -114.346657211 Eh


Maximum memory used throughout the entire CIS-calculation: 74.2 MB
=> NOW LEAVING ORCA_CIS

-------------------------   --------------------
FINAL SINGLE POINT ENERGY      -114.346657210656
-------------------------   --------------------


------------------------------------------------------------------------------
                              ORCA PROPERTY CALCULATIONS
------------------------------------------------------------------------------

GBWName                                 ... H2CO.gbw
Number of atoms                         ...      4
Number of basis functions               ...     74
Max core memory                         ...   1024 MB

Electric properties:
Dipole moment                           ... YES
Quadrupole moment                       ...  NO
Static polarizability (Dipole/Dipole)   ...  NO
Static polarizability (Dipole/Quad.)    ...  NO
Static polarizability (Quad./Quad.)     ...  NO
Static polarizability (Velocity)        ...  NO

Atomic electric properties:
Dipole moment                           ...  NO
Quadrupole moment                       ...  NO
Static polarizability                   ...  NO

Choice of electric origin               ... Center of mass
Position of electric origin             ...     0.322659    -2.023819     0.000007

General magnetic properties:
Magnetizability                         ...  NO

EPR properties:
g-Tensor (aka g-matrix)                 ...  NO
Zero-Field splitting spin-orbit         ...  NO
Zero-field splitting spin-spin          ...  NO
Hyperfine couplings                     ...  NO (   0 nuclei)
Quadrupole couplings                    ...  NO (   0 nuclei)
Contact density                         ...  NO (   0 nuclei)

NMR properties:
Chemical shifts                         ...  NO (   0 nuclei)
Spin-rotation constants                 ...  NO (   0 nuclei)
Spin-spin couplings                     ...  NO (   0 nuclei,    0 pairs)

Choice of magnetic origin               ... GIAO
Position of magnetic origin             ...     0.000000     0.000000     0.000000

Properties with geometric perturbations:
SCF Hessian                             ...  NO
IR spectrum                             ...  NO
VCD spectrum                            ...  NO
X-ray spectroscopy properties:
SCF XES/XAS/RIXS spectra                ...  NO


-------------
DIPOLE MOMENT
-------------

Method             : SCF
Type of density    : Electron Density
Multiplicity       :   1
Irrep              :   0
Energy             :  -114.4950879134200648 Eh
Relativity type    : 
Basis              : AO
                                X                 Y                 Z
Electronic contribution:      1.303301126      -0.000000013      -0.000014312
Nuclear contribution   :     -2.219073411       0.000000000       0.000024278
                        -----------------------------------------
Total Dipole Moment    :     -0.915772285      -0.000000013       0.000009966
                        -----------------------------------------
Magnitude (a.u.)       :      0.915772285
Magnitude (Debye)      :      2.327708163



--------------------
Rotational spectrum 
--------------------
 
Rotational constants in cm-1:             9.486977             1.306257             1.148167 
Rotational constants in MHz :        284412.403401         39160.613114         34421.177063 

Dipole components along the rotational axes: 
x,y,z [a.u.] :    -0.915772     0.000000     0.000000 
x,y,z [Debye]:    -2.327708     0.000000     0.000000 

 

Dipole moment calculation done in   0.0 sec 

Maximum memory used throughout the entire PROP-calculation: 5.1 MB

--------------------------------
SUGGESTED CITATIONS FOR THIS RUN
--------------------------------

Below you find a list of papers that are relevant to this ORCA run
We neither can nor want to force you to cite these papers, but we appreciate if you do
You receive ORCA, which is the product of decades of hard work by many enthusiastic individuals, for free
The only thing we kindly ask in return is that you cite our papers,
We deeply appreciate it, if you show your appreciation for ORCA by not just citing the generic ORCA reference.

Please note that relegating all ORCA citations to the supporting information does *not* help us.
SI sections are not indexed - citations you put there will not count into any citation statistics
But we need these citations in order to attract the funding resources that allow us to do what we are doing

Therefore, if you are a happy ORCA user, please consider citing a few of the papers listed below in the main body of your paper

In addition to the list printed below, the program has created the file H2CO.bibtex that contains the list in bibtex format
You can import this file easily into all common literature databanks and citation aid programs


List of essential papers. We consider these as the minimum necessary citations

  1. Neese,F.
     Software update: the ORCA program system, version 5.0
     WIRES Comput. Molec. Sci., 2022 12(1)e1606
     doi.org/10.1002/wcms.1606

List of papers to cite with high priority. The work reported in these papers was absolutely
necessary for this run to complete.
Our perspective: the developers of density functionals and basis sets usually get cited in chemistry papers
Good! But without the algorithms to do something with them, the functionals or basis sets would not do anything.
Hence, in our opinion, the algorithm design and method developments papers are equally worthy of getting cited

  1. Neese,F.; Olbrich,G.
     Efficient use of the resolution of the identity approximation in time-dependent density functional calculations with hybrid density functionals
     Chem. Phys. Lett., 2002 362 170-178
     doi.org/10.1016/s0009-2614(02)01053-9
  2. Neese,F.
     An improvement of the resolution of the identity approximation for the formation of the Coulomb matrix
     J. Comp. Chem., 2003 24(14)1740-1747
     doi.org/10.1002/jcc.10318
  3. Neese,F.; Wennmohs,F.; Hansen,A.; Becker,U.
     Efficient, approximate and parallel Hartree-Fock and hybrid DFT calculations. A 'chain-of-spheres' algorithm for the Hartree-Fock exchange
     Chem. Phys., 2009 356(1-3)98-109
     doi.org/10.1016/j.chemphys.2008.10.036
  4. Helmich-Paris,B.; de Souza,B.; Neese,F.; Izsák,R.
     An improved chain of spheres for exchange algorithm
     J. Chem. Phys., 2021 155 104109
     doi.org/doi: 10.1063/5.0058766.
  5. Neese,F.
     The SHARK Integral Generation and Digestion System
     J. Comp. Chem., 2022  1-16
     doi.org/10.1002/jcc.26942

List of suggested additional citations. These are papers that are important in the 'surrounding' of 
of this run, or papers that preceded the highly important papers. If you like your results we are grateful for a citation.

  1. Izsak,R.; Neese,F.
     An overlap fitted chain of spheres exchange method
     J. Chem. Phys., 2011 135 144105
     doi.org/10.1063/1.3646921
  2. Izsak,R.; Hansen,A.; Neese,F.
     The resolution of identity and chain of spheres approximations for the LPNO-CCSD singles Fock term
     Molec. Phys., 2012 110 2413-2417
     doi.org/10.1080/00268976.2012.687466
  3. Neese,F.
     The ORCA program system
     WIRES Comput. Molec. Sci., 2012 2(1)73-78
     doi.org/10.1002/wcms.81
  4. Izsak,R.; Neese,F.; Klopper,W.
     Robust fitting techniques in the chain of spheres approximation to the Fock exchange: The role of the complementary space
     J. Chem. Phys., 2013 139 
     doi.org/10.1063/1.4819264
  5. Neese,F.
     Software update: the ORCA program system, version 4.0
     WIRES Comput. Molec. Sci., 2018 8(1)1-6
     doi.org/10.1002/wcms.1327
  6. Neese,F.; Wennmohs,F.; Becker,U.; Riplinger,C.
     The ORCA quantum chemistry program package
     J. Chem. Phys., 2020 152 Art. No. L224108
     doi.org/10.1063/5.0004608

List of optional additional citations

  1. Neese,F.
     Approximate second-order SCF convergence for spin unrestricted wavefunctions
     Chem. Phys. Lett., 2000 325(1-3)93-98
     doi.org/10.1016/s0009-2614(00)00662-x

Timings for individual modules:

Sum of individual times          ...        3.399 sec (=   0.057 min)
Startup calculation              ...        0.142 sec (=   0.002 min)   4.2 %
SCF iterations                   ...        1.265 sec (=   0.021 min)  37.2 %
Property integrals               ...        0.039 sec (=   0.001 min)   1.1 %
Property calculations            ...        0.039 sec (=   0.001 min)   1.1 %
CIS module                       ...        1.915 sec (=   0.032 min)  56.3 %
                             ****ORCA TERMINATED NORMALLY****
TOTAL RUN TIME: 0 days 0 hours 0 minutes 3 seconds 462 msec
