
                                 *****************
                                 * O   R   C   A *
                                 *****************

                                            #,                                       
                                            ###                                      
                                            ####                                     
                                            #####                                    
                                            ######                                   
                                           ########,                                 
                                     ,,################,,,,,                         
                               ,,#################################,,                 
                          ,,##########################################,,             
                       ,#########################################, ''#####,          
                    ,#############################################,,   '####,        
                  ,##################################################,,,,####,       
                ,###########''''           ''''###############################       
              ,#####''   ,,,,##########,,,,          '''####'''          '####       
            ,##' ,,,,###########################,,,                        '##       
           ' ,,###''''                  '''############,,,                           
         ,,##''                                '''############,,,,        ,,,,,,###''
      ,#''                                            '''#######################'''  
     '                                                          ''''####''''         
             ,#######,   #######,   ,#######,      ##                                
            ,#'     '#,  ##    ##  ,#'     '#,    #''#        ,####,   ,####,        
            ##       ##  ##   ,#'  ##            #'  '#       #'       #'  '#        
            ##       ##  #######   ##           ,######,      #####,   #    #        
            '#,     ,#'  ##    ##  '#,     ,#' ,#      #,     #,   #   #,  ,#        
             '#######'   ##     ##  '#######'  #'      '#     '####' # '####'        



                #########################################################
                #                        -***-                          #
                #          Department of theory and spectroscopy        #
                #                                                       #
                #                      Frank Neese                      #
                #                                                       #
                #     Directorship, Architecture, Infrastructure        #
                #                    SHARK, DRIVERS                     #
                #        Core code/Algorithms in most modules           #
                #                                                       #
                #        Max Planck Institute fuer Kohlenforschung      #
                #                Kaiser Wilhelm Platz 1                 #
                #                 D-45470 Muelheim/Ruhr                 #
                #                      Germany                          #
                #                                                       #
                #                  All rights reserved                  #
                #                        -***-                          #
                #########################################################


                         Program Version 6.0.1  -  RELEASE   -


 With contributions from (in alphabetic order):
[Max-Planck-Institut fuer Kohlenforschung]                               
  Daniel Aravena         : Magnetic Suceptibility                        
  Michael Atanasov       : Ab Initio Ligand Field Theory (pilot matlab implementation)
  Alexander A. Auer      : GIAO ZORA, VPT2 properties, NMR spectrum      
  Ute Becker             : All parallelization in ORCA, NUMFREQ, NUMCALC 
  Giovanni Bistoni       : ED, misc. LED, open-shell LED, HFLD           
  Martin Brehm           : Molecular dynamics                            
  Dmytro Bykov           : pre 5.0 version of the SCF Hessian            
  Marcos Casanova-Páez   : Triplet and SCS-CIS(D). UHF-(DLPNO)-IP/EA/STEOM-CCSD. UHF-CVS-IP/STEOM-CCSD   
  Vijay G. Chilkuri      : MRCI spin determinant printing, contributions to CSF-ICE 
  Pauline Colinet        : FMM embedding                                 
  Dipayan Datta          : RHF DLPNO-CCSD density                        
  Achintya Kumar Dutta   : EOM-CC, STEOM-CC                              
  Nicolas Foglia         : Exact transition moments, OPA infrastructure, MCD improvements    
  Dmitry Ganyushin       : Spin-Orbit,Spin-Spin,Magnetic field MRCI      
  Miquel Garcia-Rates    : C-PCM and meta-GGA Hessian, CCSD/C-PCM, Gaussian charge scheme 
  Tiago L. C. Gouveia    : GS-ROHF, GS-ROCIS                             
  Yang Guo               : DLPNO-NEVPT2, F12-NEVPT2, CIM, IAO-localization        
  Andreas Hansen         : Spin unrestricted coupled pair/coupled cluster methods 
  Ingolf Harden          : AUTO-CI MPn and infrastructure                
  Benjamin Helmich-Paris : MC-RPA, TRAH-(SCF,CASSCF), AVAS, COSX integrals, SCF dyn. polar. 
  Lee Huntington         : MR-EOM, pCC                                   
  Robert Izsak           : Overlap fitted RIJCOSX, COSX-SCS-MP3, EOM     
  Riya Kayal             : Wick's Theorem for AUTO-CI, AUTO-CI UHF-CCSDT 
  Emily Kempfer          : AUTO-CI, RHF CISDT and CCSDT                  
  Christian Kollmar      : KDIIS, OOCD, Brueckner-CCSD(T), CCSD density, CASPT2, CASPT2-K, improved NEVPT2 
  Axel Koslowski         : Symmetry handling                             
  Simone Kossmann        : meta-GGA functionals, TD-DFT gradient, OOMP2, (MP2 Hessian; deprecated post 5.0) 
  Lucas Lang             : DCDCAS                                        
  Marvin Lechner         : AUTO-CI (C++ implementation), FIC-MRCC        
  Spencer Leger          : CASSCF response                               
  Dagmar Lenk            : GEPOL surface, SMD, ORCA-2-JSON               
  Dimitrios Liakos       : Extrapolation schemes; Compound Job, initial MDCI parallelization 
  Dimitrios Manganas     : Further ROCIS development; embedding schemes. LFT, Crystal Embedding 
  Dimitrios Pantazis     : SARC Basis sets                               
  Anastasios Papadopoulos: AUTO-CI, single reference methods and gradients 
  Taras Petrenko         : pre 6.0 DFT Hessian and TD-DFT gradient, (ASA, deprecated), ECA, 1-Electron XAS/XES, NRVS 
  Peter Pinski           : DLPNO-MP2, DLPNO-MP2 Gradient                 
  Christoph Reimann      : Effective Core Potentials                     
  Marius Retegan         : Local ZFS, SOC                                
  Christoph Riplinger    : Optimizer, TS searches, QM/MM, DLPNO-CCSD(T), (RO)-DLPNO pert. Triples 
  Michael Roemelt        : Original ROCIS implementation                 
  Masaaki Saitow         : Open-shell DLPNO-CCSD energy and density      
  Barbara Sandhoefer     : DKH picture change effects                    
  Kantharuban Sivalingam : CASSCF convergence/infrastructure, NEVPT2 and variants, FIC-MRCI 
  Bernardo de Souza      : ESD, SOC TD-DFT                               
  Georgi L. Stoychev     : AutoAux, RI-MP2 NMR, DLPNO-MP2 response, X2C  
  Van Anh Tran           : RI-MP2 g-tensors                              
  Willem Van den Heuvel  : Paramagnetic NMR                              
  Zikuan Wang            : NOTCH, Electric field optimization            
  Frank Wennmohs         : Technical directorship and infrastructure     
  Hang Xu                : AUTO-CI-Response properties                   
                                                                         
[FACCTs GmbH]                                                            
  Markus Bursch, Miquel Garcia-Rates, Christoph Riplinger, Bernardo de Souza, Georgi L. Stoychev 
                                                                 
  APM, Basis sets (HGBS, AHGBS, def-TZVP (Ac-Lr), def2-XVPD (La-Lu)), CI-OPT, improved COSX, DLPNO-Multilevel,           
  DOCKER, DRACO, updates on ESD, GOAT, IRC, LR-CPCM, MBIS, meta-GGA TD-DFT gradient, ML-optimized integration grids, 
  MM, NACMEs, nearIR, NEB, NEB-TS, NL-DFT gradient (VV10), 2- and 3-layer-ONIOM, interface openCOSMO-RS, QMMM,   
  Crystal-QMMM, SF, symmetry and pop. for TD-DFT, r2SCAN hybrids, SOLVATOR                                   
                                                                         
[Other institutions]                                                     
  V. Asgeirsson          : NEB                                           
  Christoph Bannwarth    : sTDA-DFT, sTD-DFT, PBEh-3c, B97-3c, D3        
  Sebastian Ehlert       : rSCAN, r2SCAN, r2SCAN-3c, D4, dhf basis sets  
  Marvin Friede          : D4 for Fr, Ra, Ac-Lr                          
  Lars Goerigk           : TD-DFT with DH, B97 family of functionals     
  Stefan Grimme          : VdW corrections, initial TS optimization, DFT functionals, gCP, sTDA/sTD-DF 
  Waldemar Hujo          : DFT-NL                                        
  H. Jonsson             : NEB                                           
  Holger Kruse           : gCP                                           
  Marcel Mueller         : wB97X-3c, vDZP basis set                      
  Hagen Neugebauer       : wr2SCAN                                       
  Tobias Risthaus        : range-separated hybrid DFT                    
  Lukas Wittmann         : regularized MP2, r2SCAN double-hybrids, wr2SCAN        
                                                                         
We gratefully acknowledge several colleagues who have allowed us to      
interface, adapt or use parts of their codes:                            
  Ed Valeev, F. Pavosevic, A. Kumar             : LibInt (2-el integral package), F12 methods 
  Garnet Chan, S. Sharma, J. Yang, R. Olivares  : DMRG                   
  Ulf Ekstrom                                   : XCFun DFT Library      
  Mihaly Kallay                                 : mrcc  (arbitrary order and MRCC methods)
  Frank Weinhold                                : gennbo (NPA and NBO analysis)           
  Simon Mueller                                 : openCOSMO-RS                            
  Christopher J. Cramer and Donald G. Truhlar   : smd solvation model                     
  S Lehtola, MJT Oliveira, MAL Marques          : LibXC Library                           
  Liviu Ungur et al                             : ANISO software                          


 Your calculation uses the libint2 library for the computation of 2-el integrals
 For citations please refer to: http://libint.valeyev.net

 Your ORCA version has been built with support for libXC version: 6.2.2
 For citations please refer to: https://libxc.gitlab.io

 This ORCA versions uses:
   CBLAS   interface :  Fast vector & matrix operations
   LAPACKE interface :  Fast linear algebra routines
   SCALAPACK package :  Parallel linear algebra routines
   Shared memory     :  Shared parallel matrices
   BLAS/LAPACK       :  OpenBLAS 0.3.27  USE64BITINT DYNAMIC_ARCH NO_AFFINITY Haswell SINGLE_THREADED
        Core in use  :  Haswell
   Copyright (c) 2011-2014, The OpenBLAS Project




***************************************
The coordinates will be read from file: H2CO.xyz
***************************************


Warning: RI is on but no J-basis has been assigned. Assigning Def2/J (nothing to worry about!)
================================================================================

----- Orbital basis set information -----
Your calculation utilizes the basis: cc-pVTZ 
       H, B-Ne : Obtained from the ccRepo (grant-hill.group.shef.ac.uk/ccrepo) Feb. 2017
                 T. H. Dunning, Jr., J. Chem. Phys. 90, 1007 (1989)
            He : Obtained from the ccRepo (grant-hill.group.shef.ac.uk/ccrepo) Feb. 2017
                 D. E. Woon, T. H. Dunning, Jr., J. Chem. Phys. 100, 2975 (1994)
  Li-Be, Na-Mg : Obtained from the ccRepo (grant-hill.group.shef.ac.uk/ccrepo) Feb. 2017
                 B. P. Prascher, D. E. Woon, K. A. Peterson, T. H. Dunning, Jr., A. K. Wilson, Theor. Chem. Acc. 128, 69 (2011)
         Al-Ar : Obtained from the ccRepo (grant-hill.group.shef.ac.uk/ccrepo) Feb. 2017
                 D. E. Woon, T. H. Dunning, Jr., J. Chem. Phys. 98, 1358 (1993)
            Ca : Obtained from the Peterson Research Group Website (tyr0.chem.wsu.edu/~kipeters) Feb. 2017
                 J. Koput, K. A. Peterson, J. Phys. Chem. 106, 9595 (2002)
         Sc-Zn : Obtained from the ccRepo (grant-hill.group.shef.ac.uk/ccrepo) Feb. 2017
                 N. B. Balabanov, K. A. Peterson, J. Chem. Phys. 123, 064107 (2005)
                 N. B. Balabanov, K. A. Peterson, J. Chem. Phys. 125, 074110 (2006)
         Ga-Kr : Obtained from the ccRepo (grant-hill.group.shef.ac.uk/ccrepo) Feb. 2017
                 A. K. Wilson, D. E. Woon, K. A. Peterson, T. H. Dunning, Jr., J. Chem. Phys. 110, 7667 (1999)
             Y : Obtained from the ccRepo (grant-hill.group.shef.ac.uk/ccrepo) Feb. 2017
                 K. A. Peterson, D. Figgen, M. Dolg, H. Stoll, J. Chem. Phys. 126, 124101 (2007)
        Ag, Au : Obtained from the Peterson Research Group Website (tyr0.chem.wsu.edu/~kipeters) Feb. 2017
                 K. A. Peterson, C. Puzzarini, Theor. Chem. Acc. 114, 283 (2005)

----- AuxJ basis set information -----
Your calculation utilizes the auxiliary basis: def2/J
   F. Weigend, Phys. Chem. Chem. Phys. 8, 1057 (2006).

================================================================================
                                        WARNINGS
                       Please study these warnings very carefully!
================================================================================


WARNING: Geometry Optimization
  ===> : Switching off AutoStart
         For restart on a previous wavefunction, please use MOREAD



***************************************
The coordinates will be read from file: H2CO.xyz
***************************************


Warning: RI is on but no J-basis has been assigned. Assigning Def2/J (nothing to worry about!)
================================================================================

----- Orbital basis set information -----
Your calculation utilizes the basis: cc-pVTZ 
       H, B-Ne : Obtained from the ccRepo (grant-hill.group.shef.ac.uk/ccrepo) Feb. 2017
                 T. H. Dunning, Jr., J. Chem. Phys. 90, 1007 (1989)
            He : Obtained from the ccRepo (grant-hill.group.shef.ac.uk/ccrepo) Feb. 2017
                 D. E. Woon, T. H. Dunning, Jr., J. Chem. Phys. 100, 2975 (1994)
  Li-Be, Na-Mg : Obtained from the ccRepo (grant-hill.group.shef.ac.uk/ccrepo) Feb. 2017
                 B. P. Prascher, D. E. Woon, K. A. Peterson, T. H. Dunning, Jr., A. K. Wilson, Theor. Chem. Acc. 128, 69 (2011)
         Al-Ar : Obtained from the ccRepo (grant-hill.group.shef.ac.uk/ccrepo) Feb. 2017
                 D. E. Woon, T. H. Dunning, Jr., J. Chem. Phys. 98, 1358 (1993)
            Ca : Obtained from the Peterson Research Group Website (tyr0.chem.wsu.edu/~kipeters) Feb. 2017
                 J. Koput, K. A. Peterson, J. Phys. Chem. 106, 9595 (2002)
         Sc-Zn : Obtained from the ccRepo (grant-hill.group.shef.ac.uk/ccrepo) Feb. 2017
                 N. B. Balabanov, K. A. Peterson, J. Chem. Phys. 123, 064107 (2005)
                 N. B. Balabanov, K. A. Peterson, J. Chem. Phys. 125, 074110 (2006)
         Ga-Kr : Obtained from the ccRepo (grant-hill.group.shef.ac.uk/ccrepo) Feb. 2017
                 A. K. Wilson, D. E. Woon, K. A. Peterson, T. H. Dunning, Jr., J. Chem. Phys. 110, 7667 (1999)
             Y : Obtained from the ccRepo (grant-hill.group.shef.ac.uk/ccrepo) Feb. 2017
                 K. A. Peterson, D. Figgen, M. Dolg, H. Stoll, J. Chem. Phys. 126, 124101 (2007)
        Ag, Au : Obtained from the Peterson Research Group Website (tyr0.chem.wsu.edu/~kipeters) Feb. 2017
                 K. A. Peterson, C. Puzzarini, Theor. Chem. Acc. 114, 283 (2005)

----- AuxJ basis set information -----
Your calculation utilizes the auxiliary basis: def2/J
   F. Weigend, Phys. Chem. Chem. Phys. 8, 1057 (2006).

================================================================================
                                        WARNINGS
                       Please study these warnings very carefully!
================================================================================

INFO   : Checking CIS options ...

================================================================================
                                       INPUT FILE
================================================================================
NAME = H2CO.inp
|  1> !opt B3LYP cc-PVTZ
|  2> * xyzfile 0 1 H2CO.xyz
|  3> $new_job
|  4> !B3LYP cc-PVTZ
|  5> %TDDFT
|  6> NROOTS 50
|  7> TPrint 0.000001
|  8> TDA TRUE
|  9> END
| 10> * xyzfile 0 1 H2CO.xyz
| 11> %scf
| 12> MaxIter 100
| 13> end
| 14> 
| 15>                          ****END OF INPUT****
================================================================================


                 $$$$$$$$$$$$$$$$$$$$$$$$$$$$$$$$$$$$$$$$$$$$$$ 
                 $ THERE ARE  2 JOBS TO BE PROCESSED THIS RUN $
                 $$$$$$$$$$$$$$$$$$$$$$$$$$$$$$$$$$$$$$$$$$$$$$ 




                 $$$$$$$$$$$$$$$$  JOB NUMBER  1 $$$$$$$$$$$$$$


                       *****************************
                       * Geometry Optimization Run *
                       *****************************

Geometry optimization settings:
Update method            Update   .... BFGS
Choice of coordinates    CoordSys .... (2022) Redundant Internals
Initial Hessian          InHess   .... Almloef's Model
Max. no of cycles        MaxIter  .... 50

Convergence Tolerances:
Energy Change            TolE     ....  5.0000e-06 Eh
Max. Gradient            TolMAXG  ....  3.0000e-04 Eh/bohr
RMS Gradient             TolRMSG  ....  1.0000e-04 Eh/bohr
Max. Displacement        TolMAXD  ....  4.0000e-03 bohr
RMS Displacement         TolRMSD  ....  2.0000e-03 bohr
Strict Convergence                .... False

------------------------------------------------------------------------------
                        ORCA OPTIMIZATION COORDINATE SETUP
------------------------------------------------------------------------------

The optimization will be done in redundant internal coordinates (2022)
Making redundant internal coordinates   ...  (2022 redundants) done
Evaluating the initial hessian          ...  (Almloef) done
Evaluating the coordinates              ...  done
Calculating the B-matrix                .... done
Calculating the G-matrix                .... done
Diagonalizing the G-matrix              .... done
The first mode is                       ....    1
The number of degrees of freedom        ....    6

    -----------------------------------------------------------------
                    Redundant Internal Coordinates


    -----------------------------------------------------------------
         Definition                    Initial Value    Approx d2E/dq
    -----------------------------------------------------------------
      1. B(O   1,C   0)                  1.1967         1.138440   
      2. B(H   2,C   0)                  1.1074         0.337860   
      3. B(H   3,C   0)                  1.1074         0.337860   
      4. A(O   1,C   0,H   3)          121.9322         0.385029   
      5. A(H   2,C   0,H   3)          116.1356         0.285098   
      6. A(O   1,C   0,H   2)          121.9322         0.385029   
      7. I(O   1,H   3,H   2,C   0)     -0.0007         0.117020   
    -----------------------------------------------------------------

Number of atoms                         .... 4
Number of degrees of freedom            .... 7


         *************************************************************
         *                GEOMETRY OPTIMIZATION CYCLE   1            *
         *************************************************************
---------------------------------
CARTESIAN COORDINATES (ANGSTROEM)
---------------------------------
  C     -0.429204   -1.070959    0.000007
  O      0.767473   -1.070959   -0.000016
  H     -1.014901   -0.131177    0.000005
  H     -1.014901   -2.010741    0.000044

----------------------------
CARTESIAN COORDINATES (A.U.)
----------------------------
  NO LB      ZA    FRAG     MASS         X           Y           Z
   0 C     6.0000    0    12.011   -0.811079   -2.023819    0.000012
   1 O     8.0000    0    15.999    1.450313   -2.023819   -0.000030
   2 H     1.0000    0     1.008   -1.917884   -0.247888    0.000010
   3 H     1.0000    0     1.008   -1.917884   -3.799750    0.000084

--------------------------------
INTERNAL COORDINATES (ANGSTROEM)
--------------------------------
 C      0   0   0     0.000000000000     0.00000000     0.00000000
 O      1   0   0     1.196676948017     0.00000000     0.00000000
 H      1   2   0     1.107353146075   121.93221766     0.00000000
 H      1   2   3     1.107353188786   121.93221543   180.00087298

---------------------------
INTERNAL COORDINATES (A.U.)
---------------------------
 C      0   0   0     0.000000000000     0.00000000     0.00000000
 O      1   0   0     2.261391702528     0.00000000     0.00000000
 H      1   2   0     2.092594179618   121.93221766     0.00000000
 H      1   2   3     2.092594260330   121.93221543   180.00087298

---------------------
BASIS SET INFORMATION
---------------------
There are 3 groups of distinct atoms

 Group   1 Type C   : 18s5p2d1f contracted to 4s3p2d1f pattern {8811/311/11/1}
 Group   2 Type O   : 18s5p2d1f contracted to 4s3p2d1f pattern {8811/311/11/1}
 Group   3 Type H   : 5s2p1d contracted to 3s2p1d pattern {311/11/1}

Atom   0C    basis set group =>   1
Atom   1O    basis set group =>   2
Atom   2H    basis set group =>   3
Atom   3H    basis set group =>   3
---------------------------------
AUXILIARY/J BASIS SET INFORMATION
---------------------------------
There are 3 groups of distinct atoms

 Group   1 Type C   : 12s5p4d2f1g contracted to 6s4p3d1f1g pattern {711111/2111/211/2/1}
 Group   2 Type O   : 12s5p4d2f1g contracted to 6s4p3d1f1g pattern {711111/2111/211/2/1}
 Group   3 Type H   : 5s2p1d contracted to 3s1p1d pattern {311/2/1}

Atom   0C    basis set group =>   1
Atom   1O    basis set group =>   2
Atom   2H    basis set group =>   3
Atom   3H    basis set group =>   3
------------------------------------------------------------------------------
                             ORCA STARTUP CALCULATIONS
                           -- RI-GTO INTEGRALS CHOSEN --
------------------------------------------------------------------------------
------------------------------------------------------------------------------
                   ___                                                        
                  /   \      - P O W E R E D   B Y -                         
                 /     \                                                     
                 |  |  |   _    _      __       _____    __    __             
                 |  |  |  | |  | |    /  \     |  _  \  |  |  /  |          
                  \  \/   | |  | |   /    \    | | | |  |  | /  /          
                 / \  \   | |__| |  /  /\  \   | |_| |  |  |/  /          
                |  |  |   |  __  | /  /__\  \  |    /   |      \           
                |  |  |   | |  | | |   __   |  |    \   |  |\   \          
                \     /   | |  | | |  |  |  |  | |\  \  |  | \   \       
                 \___/    |_|  |_| |__|  |__|  |_| \__\ |__|  \__/        
                                                                              
                      - O R C A' S   B I G   F R I E N D -                    
                                      &                                       
                       - I N T E G R A L  F E E D E R -                       
                                                                              
 v1 FN, 2020, v2 2021, v3 2022-2024                                           
------------------------------------------------------------------------------


----------------------
SHARK INTEGRAL PACKAGE
----------------------

Number of atoms                             ...      4
Number of basis functions                   ...    100
Number of shells                            ...     44
Maximum angular momentum                    ...      3
Integral batch strategy                     ... SHARK/LIBINT Hybrid
RI-J (if used) integral strategy            ... SPLIT-RIJ (Revised 2003 algorithm where possible)
Printlevel                                  ...      1
Contraction scheme used                     ... PARTIAL GENERAL contraction
Prescreening option                         ... SCHWARTZ
   Thresh                                   ... 2.500e-11
   Tcut                                     ... 2.500e-12
   Tpresel                                  ... 2.500e-12 
Coulomb Range Separation                    ... NOT USED
Exchange Range Separation                   ... NOT USED
Multipole approximations                    ... NOT USED
Finite Nucleus Model                        ... NOT USED
CABS basis                                  ... NOT available
Auxiliary Coulomb fitting basis             ... AVAILABLE
   # of basis functions in Aux-J            ...    120
   # of shells in Aux-J                     ...     40
   Maximum angular momentum in Aux-J        ...      4
Auxiliary J/K fitting basis                 ... NOT available
Auxiliary Correlation fitting basis         ... NOT available
Auxiliary 'external' fitting basis          ... NOT available

Checking pre-screening integrals            ... done (  0.0 sec) Dimension = 44
Save PGC pre-screening integrals            ... done (  0.0 sec) Dimension = 44
Calculate PGC overlap integrals             ... done (  0.0 sec) Dimension = 32
Calculating pre-screening integrals (ORCA)  ... done (  0.0 sec) Dimension = 32
Check shell pair data                       ... done (  0.0 sec)
Shell pair information
Shell pair cut-off parameter TPreSel        ...   2.5e-12
Total number of shell pairs                 ...       990
Shell pairs after pre-screening             ...       950
Total number of primitive shell pairs       ...      1390
Primitive shell pairs kept                  ...      1275
          la=0 lb=0:    311 shell pairs
          la=1 lb=0:    260 shell pairs
          la=1 lb=1:     55 shell pairs
          la=2 lb=0:    156 shell pairs
          la=2 lb=1:     60 shell pairs
          la=2 lb=2:     21 shell pairs
          la=3 lb=0:     52 shell pairs
          la=3 lb=1:     20 shell pairs
          la=3 lb=2:     12 shell pairs
          la=3 lb=3:      3 shell pairs

Calculating one electron integrals          ... done (  0.0 sec)
Calculating RI/J V-Matrix + Cholesky decomp.... done (  0.0 sec)
Calculating Nuclear repulsion               ... done (  0.0 sec) ENN=     31.443914760594 Eh

Diagonalization of the overlap matrix:
Smallest eigenvalue                        ... 2.202e-03
Time for diagonalization                   ...    0.001 sec
Threshold for overlap eigenvalues          ... 1.000e-07
Number of eigenvalues below threshold      ... 0
Time for construction of square roots      ...    0.000 sec
Total time needed                          ...    0.002 sec

-------------------
DFT GRID GENERATION
-------------------

General Integration Accuracy     IntAcc      ... 4.388
Radial Grid Type                 RadialGrid  ... OptM3 with GC (2021)
Angular Grid (max. ang.)         AngularGrid ... 4 (Lebedev-302)
Angular grid pruning method      GridPruning ... 4 (adaptive)
Weight generation scheme         WeightScheme... mBecke (2022)
Basis function cutoff            BFCut       ... 1.0000e-11
Integration weight cutoff        WCut        ... 1.0000e-14
Partially contracted basis set               ... off
Rotationally invariant grid construction     ... off
Angular grids for H and He will be reduced by one unit

Total number of grid points                  ...    18835
Total number of batches                      ...      296
Average number of points per batch           ...       63
Average number of grid points per atom       ...     4709

---------------------
SHARK GRID GENERATION
---------------------

General Integration Accuracy     IntAcc      ... 4.388
Radial Grid Type                 RadialGrid  ... OptM3 with GC (2021)
Angular Grid (max. ang.)         AngularGrid ... 4 (Lebedev-302)
Angular grid pruning method      GridPruning ... 4 (adaptive)
Weight generation scheme         WeightScheme... mBecke (2022)
Basis function cutoff            BFCut       ... 1.0000e-11
Integration weight cutoff        WCut        ... 1.0000e-14
Partially contracted basis set               ... off
Rotationally invariant grid construction     ... off
Angular grids for H and He will be reduced by one unit
Steep s-basis detected: some atoms will have their radial
                        grid points doubled.

Total number of grid points                  ...    31270
Total number of batches                      ...      491
Average number of points per batch           ...       63
Average number of grid points per atom       ...     7818

--------------------
COSX GRID GENERATION
--------------------

GRIDX 1
-------
General Integration Accuracy     IntAcc      ... 3.816
Radial Grid Type                 RadialGrid  ... OptM3 with GC (2021)
Angular Grid (max. ang.)         AngularGrid ... 1 (Lebedev-50)
Angular grid pruning method      GridPruning ... 4 (adaptive)
Weight generation scheme         WeightScheme... mBecke (2022)
Basis function cutoff            BFCut       ... 1.0000e-11
Integration weight cutoff        WCut        ... 1.0000e-14
Partially contracted basis set               ... on
Rotationally invariant grid construction     ... off
Angular grids for H and He will be reduced by one unit

Total number of grid points                  ...     2416
Total number of batches                      ...       22
Average number of points per batch           ...      109
Average number of grid points per atom       ...      604
UseSFitting                                  ... on

GRIDX 2
-------
General Integration Accuracy     IntAcc      ... 4.020
Radial Grid Type                 RadialGrid  ... OptM3 with GC (2021)
Angular Grid (max. ang.)         AngularGrid ... 2 (Lebedev-110)
Angular grid pruning method      GridPruning ... 4 (adaptive)
Weight generation scheme         WeightScheme... mBecke (2022)
Basis function cutoff            BFCut       ... 1.0000e-11
Integration weight cutoff        WCut        ... 1.0000e-14
Partially contracted basis set               ... on
Rotationally invariant grid construction     ... off
Angular grids for H and He will be reduced by one unit

Total number of grid points                  ...     5360
Total number of batches                      ...       44
Average number of points per batch           ...      121
Average number of grid points per atom       ...     1340
UseSFitting                                  ... on

GRIDX 3
-------
General Integration Accuracy     IntAcc      ... 4.338
Radial Grid Type                 RadialGrid  ... OptM3 with GC (2021)
Angular Grid (max. ang.)         AngularGrid ... 3 (Lebedev-194)
Angular grid pruning method      GridPruning ... 4 (adaptive)
Weight generation scheme         WeightScheme... mBecke (2022)
Basis function cutoff            BFCut       ... 1.0000e-11
Integration weight cutoff        WCut        ... 1.0000e-14
Partially contracted basis set               ... on
Rotationally invariant grid construction     ... off
Angular grids for H and He will be reduced by one unit

Total number of grid points                  ...    11891
Total number of batches                      ...       94
Average number of points per batch           ...      126
Average number of grid points per atom       ...     2973
UseSFitting                                  ... on
Initializing property integral containers    ... done (  0.0 sec)

SHARK setup successfully completed in   0.3 seconds

Maximum memory used throughout the entire STARTUP-calculation: 19.4 MB
-------------------------------------------------------------------------------
                                 ORCA GUESS
                   Start orbitals & Density for SCF / CASSCF
-------------------------------------------------------------------------------

------------
SCF SETTINGS
------------
Hamiltonian:
 Density Functional     Method          .... DFT(GTOs)
 Exchange Functional    Exchange        .... B88
   X-Alpha parameter    XAlpha          ....  0.666667
   Becke's b parameter  XBeta           ....  0.004200
 Correlation Functional Correlation     .... LYP
 LDA part of GGA corr.  LDAOpt          .... VWN-5
 Gradients option       PostSCFGGA      .... off
 Hybrid DFT is turned on
   Fraction HF Exchange ScalHFX         ....  0.200000
   Scaling of DF-GGA-X  ScalDFX         ....  0.720000
   Scaling of DF-GGA-C  ScalDFC         ....  0.810000
   Scaling of DF-LDA-C  ScalLDAC        ....  1.000000
   Perturbative correction              ....  0.000000
   NL short-range parameter             ....  4.800000
 RI-approximation to the Coulomb term is turned on
   Number of AuxJ basis functions       .... 120
   RIJ-COSX (HFX calculated with COS-X)).... on


General Settings:
 Integral files         IntName         .... H2CO
 Hartree-Fock type      HFTyp           .... RHF
 Total Charge           Charge          ....    0
 Multiplicity           Mult            ....    1
 Number of Electrons    NEL             ....   16
 Basis Dimension        Dim             ....   88
 Nuclear Repulsion      ENuc            ....     31.4439147606 Eh

Convergence Acceleration:
 AO-DIIS                CNVDIIS         .... on
   Start iteration      DIISMaxIt       ....    12
   Startup error        DIISStart       ....  0.200000
   # of expansion vecs  DIISMaxEq       ....     5
   Bias factor          DIISBfac        ....   1.050
   Max. coefficient     DIISMaxC        ....  10.000
 MO-DIIS                CNVKDIIS        .... off
 Trust-Rad. Augm. Hess. CNVTRAH         .... auto
   Auto Start mean grad. ratio tolernc. ....  1.125000
   Auto Start start iteration           ....    50
   Auto Start num. interpolation iter.  ....    10
   Max. Number of Micro iterations      ....    24
   Max. Number of Macro iterations      .... Maxiter - #DIIS iter
   Number of Davidson start vectors     ....     2
   Converg. threshold    (grad. norm)   ....   1.000e-05
   Grad. Scal. Fac. for Micro threshold ....   0.100
   Minimum threshold for Micro iter.    ....   1.000e-02
   NR start threshold (gradient norm)   ....   1.000e-04
   Initial trust radius                 ....   0.400
   Minimum AH scaling param. (alpha)    ....   1.000
   Maximum AH scaling param. (alpha)    .... 1000.000
   Quad. conv. algorithm                .... NR
   White noise on init. David. guess    .... on
   Maximum white noise                  ....   0.010
   Pseudo random numbers                .... off
   Inactive MOs                         .... canonical
   Orbital update algorithm             .... Taylor
   Preconditioner                       .... Diag
   Full preconditioner red. dimension   ....   250
 SOSCF                  CNVSOSCF        .... on
   Start iteration      SOSCFMaxIt      ....   150
   Startup grad/error   SOSCFStart      ....  0.003300
   Hessian update       SOSCFHessUp     .... L-BFGS
 Level Shifting         CNVShift        .... on
   Level shift para.    LevelShift      ....    0.2500
   Turn off err/grad.   ShiftErr        ....    0.0010
 Zerner damping         CNVZerner       .... off
 Static damping         CNVDamp         .... on
   Fraction old density DampFac         ....    0.7000
   Max. Damping (<1)    DampMax         ....    0.9800
   Min. Damping (>=0)   DampMin         ....    0.0000
   Turn off err/grad.   DampErr         ....    0.1000

SCF Procedure:
 Maximum # iterations   MaxIter         ....   125
 SCF integral mode      SCFMode         .... Direct
   Integral package                     .... SHARK and LIBINT hybrid scheme
 Reset frequency        DirectResetFreq ....    20
 Integral Threshold     Thresh          ....  2.500e-11 Eh
 Primitive CutOff       TCut            ....  2.500e-12 Eh

Convergence Tolerance:
 Convergence Check Mode ConvCheckMode   .... Total+1el-Energy
 Convergence forced     ConvForced      .... 0
 Energy Change          TolE            ....  1.000e-08 Eh
 1-El. energy change                    ....  1.000e-05 Eh
 Orbital Gradient       TolG            ....  1.000e-05
 Orbital Rotation angle TolX            ....  1.000e-05
 DIIS Error             TolErr          ....  5.000e-07

------------------------------
INITIAL GUESS: MODEL POTENTIAL
------------------------------
Loading Hartree-Fock densities                     ... done
Calculating cut-offs                               ... done
Initializing the effective Hamiltonian             ... done
Setting up the integral package (SHARK)            ... done
Starting the Coulomb interaction                   ... done (   0.0 sec)
Making the grid                                    ... done (   0.0 sec)
Mapping shells                                     ... done
Starting the XC term evaluation                    ... done (   0.0 sec)
  promolecular density results
     # of electrons  =     15.999119711
     EX              =    -13.886552645
     EC              =     -0.536498882
     EX+EC           =    -14.423051527
Transforming the Hamiltonian                       ... done (   0.0 sec)
Diagonalizing the Hamiltonian                      ... done (   0.0 sec)
Back transforming the eigenvectors                 ... done (   0.0 sec)
Now organizing SCF variables                       ... done
                      ------------------
                      INITIAL GUESS DONE (   0.0 sec)
                      ------------------
             **** ENERGY FILE WAS UPDATED (H2CO.en.tmp) ****
Finished Guess after   0.1 sec
Maximum memory used throughout the entire GUESS-calculation: 8.7 MB

-------------------------------------------------------------------------------------------
                                      ORCA LEAN-SCF
                              memory conserving SCF solver
-------------------------------------------------------------------------------------------

----------------------------------------D-I-I-S--------------------------------------------
Iteration    Energy (Eh)           Delta-E    RMSDP     MaxDP     DIISErr   Damp  Time(sec)
-------------------------------------------------------------------------------------------
               ***  Starting incremental Fock matrix formation  ***
    1    -114.4055672387228100     0.00e+00  3.05e-03  3.86e-02  3.05e-01  0.700   0.2
    2    -114.4490338341532123    -4.35e-02  2.00e-03  2.55e-02  1.10e-01  0.700   0.1
                               ***Turning on AO-DIIS***
    3    -114.4605373896999794    -1.15e-02  7.15e-04  9.85e-03  3.76e-02  0.700   0.1
    4    -114.4690292053221725    -8.49e-03  8.45e-04  1.16e-02  2.13e-02  0.000   0.1
    5    -114.4900823996566288    -2.11e-02  4.72e-04  7.19e-03  9.62e-03  0.000   0.1
                              *** Initializing SOSCF ***
---------------------------------------S-O-S-C-F--------------------------------------
Iteration    Energy (Eh)           Delta-E    RMSDP     MaxDP     MaxGrad    Time(sec)
--------------------------------------------------------------------------------------
    6    -114.4902509786261220    -1.69e-04  1.59e-04  2.59e-03  2.14e-03     0.1
               *** Restarting incremental Fock matrix formation ***
    7    -114.4902495009495880     1.48e-06  9.58e-05  1.73e-03  3.21e-04     0.2
    8    -114.4902504184650667    -9.18e-07  1.47e-05  2.47e-04  1.68e-04     0.2
    9    -114.4902505598989677    -1.41e-07  1.37e-05  2.43e-04  1.63e-04     0.2
   10    -114.4902506412567647    -8.14e-08  5.42e-06  8.82e-05  8.01e-05     0.2
   11    -114.4902506885428437    -4.73e-08  4.14e-06  6.72e-05  2.50e-05     0.2
   12    -114.4902506991093247    -1.06e-08  7.42e-07  1.28e-05  5.44e-06     0.2
   13    -114.4902506984433188     6.66e-10  4.52e-08  6.37e-07  4.91e-07     0.2
                 **** Energy Check signals convergence ****

               *****************************************************
               *                     SUCCESS                       *
               *           SCF CONVERGED AFTER  13 CYCLES          *
               *****************************************************

Recomputing exchange energy using gridx3       ... done (    0.306 sec)
Old exchange energy                            :     -2.812498934 Eh
New exchange energy                            :     -2.812471630 Eh
Exchange energy change after final integration :      0.000027303 Eh
Total energy after final integration           :   -114.490223395 Eh
             **** ENERGY FILE WAS UPDATED (H2CO.en.tmp) ****

----------------
TOTAL SCF ENERGY
----------------

Total Energy       :       -114.49022339495741 Eh           -3115.43736 eV

Components:
Nuclear Repulsion  :         31.44391476059424 Eh             855.63242 eV
Electronic Energy  :       -145.93416545903756 Eh           -3971.07053 eV
One Electron Energy:       -217.84258088772435 Eh           -5927.79799 eV
Two Electron Energy:         71.90841542868679 Eh            1956.72746 eV

Virial components:
Potential Energy   :       -228.35717204708985 Eh           -6213.91456 eV
Kinetic Energy     :        113.86694865213244 Eh            3098.47720 eV
Virial Ratio       :          2.00547371076685

DFT components:
N(Alpha)           :        8.000004014321 electrons
N(Beta)            :        8.000004014321 electrons
N(Total)           :       16.000008028641 electrons
E(X)               :      -11.204952967473 Eh       
E(C)               :       -0.639184621528 Eh       
E(XC)              :      -11.844137589001 Eh       

---------------
SCF CONVERGENCE
---------------

  Last Energy change         ...   -6.6601e-10  Tolerance :   1.0000e-08
  Last MAX-Density change    ...    6.3658e-07  Tolerance :   1.0000e-07
  Last RMS-Density change    ...    4.5198e-08  Tolerance :   5.0000e-09
  Last DIIS Error            ...    2.1397e-03  Tolerance :   5.0000e-07
  Last Orbital Gradient      ...    4.9135e-07  Tolerance :   1.0000e-05
  Last Orbital Rotation      ...    5.0140e-07  Tolerance :   1.0000e-05


----------------
ORBITAL ENERGIES
----------------

  NO   OCC          E(Eh)            E(eV) 
   0   2.0000     -19.146495      -521.0026 
   1   2.0000     -10.272204      -279.5209 
   2   2.0000      -1.068675       -29.0801 
   3   2.0000      -0.637172       -17.3383 
   4   2.0000      -0.500767       -13.6266 
   5   2.0000      -0.456729       -12.4282 
   6   2.0000      -0.407569       -11.0905 
   7   2.0000      -0.273548        -7.4436 
   8   0.0000      -0.050740        -1.3807 
   9   0.0000       0.046784         1.2731 
  10   0.0000       0.106386         2.8949 
  11   0.0000       0.145054         3.9471 
  12   0.0000       0.283446         7.7130 
  13   0.0000       0.289928         7.8893 
  14   0.0000       0.330990         9.0067 
  15   0.0000       0.433354        11.7922 
  16   0.0000       0.435834        11.8596 
  17   0.0000       0.494567        13.4578 
  18   0.0000       0.527788        14.3618 
*Only the first 10 virtual orbitals were printed.

                    ********************************
                    * MULLIKEN POPULATION ANALYSIS *
                    ********************************

-----------------------
MULLIKEN ATOMIC CHARGES
-----------------------
   0 C :    0.160741
   1 O :   -0.238334
   2 H :    0.038796
   3 H :    0.038796
Sum of atomic charges:   -0.0000000

--------------------------------
MULLIKEN REDUCED ORBITAL CHARGES
--------------------------------
  0 C s       :     3.276837  s :     3.276837
      pz      :     0.705575  p :     2.460066
      px      :     0.786128
      py      :     0.968363
      dz2     :     0.009650  d :     0.089771
      dxz     :     0.026079
      dyz     :     0.000000
      dx2y2   :     0.019338
      dxy     :     0.034705
      f0      :     0.001380  f :     0.012585
      f+1     :     0.000564
      f-1     :     0.000219
      f+2     :     0.002204
      f-2     :     0.000000
      f+3     :     0.003068
      f-3     :     0.005151

  1 O s       :     3.751509  s :     3.751509
      pz      :     1.240234  p :     4.450870
      px      :     1.400653
      py      :     1.809984
      dz2     :     0.003195  d :     0.033692
      dxz     :     0.012342
      dyz     :     0.000000
      dx2y2   :     0.010185
      dxy     :     0.007970
      f0      :     0.000177  f :     0.002262
      f+1     :     0.000254
      f-1     :     0.000024
      f+2     :     0.000554
      f-2     :     0.000000
      f+3     :     0.000628
      f-3     :     0.000625

  2 H s       :     0.939595  s :     0.939595
      pz      :     0.005222  p :     0.019154
      px      :     0.003905
      py      :     0.010027
      dz2     :     0.000163  d :     0.002454
      dxz     :     0.000194
      dyz     :     0.000312
      dx2y2   :     0.001054
      dxy     :     0.000732

  3 H s       :     0.939595  s :     0.939595
      pz      :     0.005222  p :     0.019154
      px      :     0.003905
      py      :     0.010027
      dz2     :     0.000163  d :     0.002454
      dxz     :     0.000194
      dyz     :     0.000312
      dx2y2   :     0.001054
      dxy     :     0.000732



                     *******************************
                     * LOEWDIN POPULATION ANALYSIS *
                     *******************************

----------------------
LOEWDIN ATOMIC CHARGES
----------------------
   0 C :   -0.092059
   1 O :    0.225663
   2 H :   -0.066802
   3 H :   -0.066802

-------------------------------
LOEWDIN REDUCED ORBITAL CHARGES
-------------------------------
  0 C s       :     2.800978  s :     2.800978
      pz      :     0.668914  p :     2.657571
      px      :     0.973117
      py      :     1.015540
      dz2     :     0.034428  d :     0.545695
      dxz     :     0.073385
      dyz     :     0.000000
      dx2y2   :     0.128207
      dxy     :     0.309675
      f0      :     0.004619  f :     0.087816
      f+1     :     0.009686
      f-1     :     0.002442
      f+2     :     0.014233
      f-2     :     0.000000
      f+3     :     0.017188
      f-3     :     0.039647

  1 O s       :     3.382009  s :     3.382009
      pz      :     1.165104  p :     4.315960
      px      :     1.499961
      py      :     1.650894
      dz2     :     0.007569  d :     0.070673
      dxz     :     0.012540
      dyz     :     0.000000
      dx2y2   :     0.024007
      dxy     :     0.026557
      f0      :     0.000334  f :     0.005695
      f+1     :     0.000738
      f-1     :     0.000166
      f+2     :     0.000682
      f-2     :     0.000000
      f+3     :     0.001548
      f-3     :     0.002227

  2 H s       :     0.898688  s :     0.898688
      pz      :     0.024457  p :     0.143116
      px      :     0.041934
      py      :     0.076725
      dz2     :     0.002721  d :     0.024998
      dxz     :     0.001971
      dyz     :     0.003666
      dx2y2   :     0.008028
      dxy     :     0.008612

  3 H s       :     0.898688  s :     0.898688
      pz      :     0.024457  p :     0.143116
      px      :     0.041934
      py      :     0.076725
      dz2     :     0.002721  d :     0.024998
      dxz     :     0.001971
      dyz     :     0.003666
      dx2y2   :     0.008028
      dxy     :     0.008612



                      *****************************
                      * MAYER POPULATION ANALYSIS *
                      *****************************

  NA   - Mulliken gross atomic population
  ZA   - Total nuclear charge
  QA   - Mulliken gross atomic charge
  VA   - Mayer's total valence
  BVA  - Mayer's bonded valence
  FA   - Mayer's free valence

  ATOM       NA         ZA         QA         VA         BVA        FA
  0 C      5.8393     6.0000     0.1607     3.9182     3.9182    -0.0000
  1 O      8.2383     8.0000    -0.2383     2.2230     2.2230     0.0000
  2 H      0.9612     1.0000     0.0388     0.9409     0.9409    -0.0000
  3 H      0.9612     1.0000     0.0388     0.9409     0.9409     0.0000

  Mayer bond orders larger than 0.100000
B(  0-C ,  1-O ) :   2.1388 B(  0-C ,  2-H ) :   0.8897 B(  0-C ,  3-H ) :   0.8897 


-------
TIMINGS
-------

Total SCF time: 0 days 0 hours 0 min 2 sec 

Total time                  ....       2.569 sec
Sum of individual times     ....       2.559 sec  ( 99.6%)

SCF preparation             ....       0.034 sec  (  1.3%)
Fock matrix formation       ....       2.499 sec  ( 97.3%)
  Startup                   ....       0.000 sec  (  0.0% of F)
  Split-RI-J                ....       0.109 sec  (  4.4% of F)
  Chain of spheres X        ....       1.787 sec  ( 71.5% of F)
  XC integration            ....       0.597 sec  ( 23.9% of F)
    Basis function eval.    ....       0.220 sec  ( 36.9% of XC)
    Density eval.           ....       0.117 sec  ( 19.6% of XC)
    XC-Functional eval.     ....       0.042 sec  (  7.0% of XC)
    XC-Potential eval.      ....       0.192 sec  ( 32.2% of XC)
Diagonalization             ....       0.000 sec  (  0.0%)
Density matrix formation    ....       0.003 sec  (  0.1%)
Total Energy calculation    ....       0.001 sec  (  0.0%)
Population analysis         ....       0.002 sec  (  0.1%)
Orbital Transformation      ....       0.010 sec  (  0.4%)
Orbital Orthonormalization  ....       0.000 sec  (  0.0%)
DIIS solution               ....       0.007 sec  (  0.3%)
SOSCF solution              ....       0.003 sec  (  0.1%)
Finished LeanSCF after   2.6 sec

Maximum memory used throughout the entire LEANSCF-calculation: 9.0 MB

-------------------------   --------------------
FINAL SINGLE POINT ENERGY      -114.490223394957
-------------------------   --------------------

------------------------------------------------------------------------------
                         ORCA SCF GRADIENT CALCULATION
------------------------------------------------------------------------------

Nuc. rep. gradient        (SHARK) ... done (  0.0 sec)
HCore & Overlap gradient  (SHARK) ... done (  0.0 sec)
Split-RIJ-J gradient      (SHARK) ... done (  0.1 sec)
COSX-gradient                     ... done (  1.6 sec)
XC gradient                       ... done (  0.2 sec)

------------------
CARTESIAN GRADIENT
------------------

   1   C   :    0.003362118    0.000000090   -0.000001609
   2   O   :   -0.004646259    0.000000006    0.000000581
   3   H   :    0.000642084    0.000478372    0.000000492
   4   H   :    0.000642057   -0.000478468    0.000000536

Difference to translation invariance:
           :    0.0000000001    0.0000000000   -0.0000000000

Difference to rotation invariance:
           :   -0.0000000418    0.0000000645    0.0000000727

Norm of the Cartesian gradient     ...    0.0058458403
RMS gradient                       ...    0.0016875487
MAX gradient                       ...    0.0046462595

-------
TIMINGS
-------

Total SCF gradient time     ....        1.896 sec

Densities                   ....       0.000 sec  (  0.0%)
One electron gradient       ....       0.008 sec  (  0.4%)
RI-J Coulomb gradient       ....       0.088 sec  (  4.6%)
COSX gradient               ....       1.554 sec  ( 82.0%)
XC gradient                 ....       0.246 sec  ( 13.0%)

Maximum memory used throughout the entire SCFGRAD-calculation: 11.5 MB
------------------------------------------------------------------------------
                         ORCA GEOMETRY RELAXATION STEP
------------------------------------------------------------------------------

Reading the OPT-File                    .... done
Getting information on internals        .... done
Copying old internal coords+grads       .... done
Making the new internal coordinates     .... (2022 redundants) done
Validating the new internal coordinates .... (2022 redundants) done
Calculating the B-matrix                .... done
Calculating the G,G- and P matrices     .... done
Transforming gradient to internals      .... done
Projecting the internal gradient        .... done
Number of atoms                         ....   4
Number of internal coordinates          ....   7
Current Energy                          ....  -114.490223395 Eh
Current gradient norm                   ....     0.005845840 Eh/bohr
Maximum allowed component of the step   ....  0.300
Current trust radius                    ....  0.300
Evaluating the initial hessian          ....  (Almloef) done
Projecting the Hessian                  .... done
Forming the augmented Hessian           .... done
Diagonalizing the augmented Hessian     .... done
Last element of RFO vector              ....  0.999982468
Lowest eigenvalues of augmented Hessian:
 -0.000024826  0.117019880  0.318414144  0.337860351  0.337860410
Length of the computed step             ....  0.005921547
The final length of the internal step   ....  0.005921547
Converting the step to Cartesian space:
 Initial RMS(Int)=    0.0022381345
Transforming coordinates:
 Iter   0:  RMS(Cart)=    0.0018834766 RMS(Int)=    0.0022381636
done
Storing new coordinates                 .... done

                                .--------------------.
          ----------------------|Geometry convergence|-------------------------
          Item                value                   Tolerance       Converged
          ---------------------------------------------------------------------
          RMS gradient        0.0018305095            0.0001000000      NO
          MAX gradient        0.0046462595            0.0003000000      NO
          RMS step            0.0022381345            0.0020000000      NO
          MAX step            0.0040811629            0.0040000000      NO
          ........................................................
          Max(Bonds)      0.0022      Max(Angles)    0.20
          Max(Dihed)        0.00      Max(Improp)    0.00
          ---------------------------------------------------------------------

The optimization has not yet converged - more geometry cycles are needed


    ---------------------------------------------------------------------------
                         Redundant Internal Coordinates
                            (Angstroem and degrees)

        Definition                    Value    dE/dq     Step     New-Value
    ----------------------------------------------------------------------------
     1. B(O   1,C   0)                1.1967 -0.004646  0.0022    1.1988   
     2. B(H   2,C   0)                1.1074  0.000066 -0.0001    1.1072   
     3. B(H   3,C   0)                1.1074  0.000066 -0.0001    1.1072   
     4. A(O   1,C   0,H   3)          121.93 -0.000557    0.10    122.03   
     5. A(H   2,C   0,H   3)          116.14  0.001113   -0.20    115.94   
     6. A(O   1,C   0,H   2)          121.93 -0.000557    0.10    122.03   
     7. I(O   1,H   3,H   2,C   0)     -0.00 -0.000001    0.00     -0.00   
    ----------------------------------------------------------------------------

Geometry step timings:
Preparation and reading OPT file:      0.000 s ( 5.970 %)
Internal coordinates            :      0.000 s ( 1.493 %)
B/P matrices and projection     :      0.000 s ( 8.358 %)
Hessian update/contruction      :      0.000 s ( 7.313 %)
Making the step                 :      0.000 s ( 4.030 %)
Converting the step to Cartesian:      0.000 s ( 2.239 %)
Storing new data                :      0.000 s ( 1.194 %)
Checking convergence            :      0.000 s ( 0.000 %)
Final printing                  :      0.000 s (68.955 %)
Total time                      :      0.001 s

Time for energy+gradient        :      4.903 s
Time for complete geometry iter :      4.930 s

         *************************************************************
         *                GEOMETRY OPTIMIZATION CYCLE   2            *
         *************************************************************
---------------------------------
CARTESIAN COORDINATES (ANGSTROEM)
---------------------------------
  C     -0.428951   -1.070959    0.000009
  O      0.769886   -1.070959   -0.000017
  H     -1.016234   -0.132290    0.000004
  H     -1.016234   -2.009628    0.000043

----------------------------
CARTESIAN COORDINATES (A.U.)
----------------------------
  NO LB      ZA    FRAG     MASS         X           Y           Z
   0 C     6.0000    0    12.011   -0.810600   -2.023819    0.000018
   1 O     8.0000    0    15.999    1.454873   -2.023819   -0.000032
   2 H     1.0000    0     1.008   -1.920404   -0.249992    0.000008
   3 H     1.0000    0     1.008   -1.920404   -3.797646    0.000082

--------------------------------
INTERNAL COORDINATES (ANGSTROEM)
--------------------------------
 C      0   0   0     0.000000000000     0.00000000     0.00000000
 O      1   0   0     1.198836606411     0.00000000     0.00000000
 H      1   2   0     1.107249195482   122.03236539     0.00000000
 H      1   2   3     1.107249087739   122.03236512   180.00017162

---------------------------
INTERNAL COORDINATES (A.U.)
---------------------------
 C      0   0   0     0.000000000000     0.00000000     0.00000000
 O      1   0   0     2.265472865435     0.00000000     0.00000000
 H      1   2   0     2.092397741465   122.03236539     0.00000000
 H      1   2   3     2.092397537862   122.03236512   180.00017162

------------------------------------------------------------------------------
                   ___                                                        
                  /   \      - P O W E R E D   B Y -                         
                 /     \                                                     
                 |  |  |   _    _      __       _____    __    __             
                 |  |  |  | |  | |    /  \     |  _  \  |  |  /  |          
                  \  \/   | |  | |   /    \    | | | |  |  | /  /          
                 / \  \   | |__| |  /  /\  \   | |_| |  |  |/  /          
                |  |  |   |  __  | /  /__\  \  |    /   |      \           
                |  |  |   | |  | | |   __   |  |    \   |  |\   \          
                \     /   | |  | | |  |  |  |  | |\  \  |  | \   \       
                 \___/    |_|  |_| |__|  |__|  |_| \__\ |__|  \__/        
                                                                              
                      - O R C A' S   B I G   F R I E N D -                    
                                      &                                       
                       - I N T E G R A L  F E E D E R -                       
                                                                              
 v1 FN, 2020, v2 2021, v3 2022-2024                                           
------------------------------------------------------------------------------


----------------------
SHARK INTEGRAL PACKAGE
----------------------

Number of atoms                             ...      4
Number of basis functions                   ...    100
Number of shells                            ...     44
Maximum angular momentum                    ...      3
Integral batch strategy                     ... SHARK/LIBINT Hybrid
RI-J (if used) integral strategy            ... SPLIT-RIJ (Revised 2003 algorithm where possible)
Printlevel                                  ...      1
Contraction scheme used                     ... PARTIAL GENERAL contraction
Prescreening option                         ... SCHWARTZ
   Thresh                                   ... 2.500e-11
   Tcut                                     ... 2.500e-12
   Tpresel                                  ... 2.500e-12 
Coulomb Range Separation                    ... NOT USED
Exchange Range Separation                   ... NOT USED
Multipole approximations                    ... NOT USED
Finite Nucleus Model                        ... NOT USED
CABS basis                                  ... NOT available
Auxiliary Coulomb fitting basis             ... AVAILABLE
   # of basis functions in Aux-J            ...    120
   # of shells in Aux-J                     ...     40
   Maximum angular momentum in Aux-J        ...      4
Auxiliary J/K fitting basis                 ... NOT available
Auxiliary Correlation fitting basis         ... NOT available
Auxiliary 'external' fitting basis          ... NOT available

Checking pre-screening integrals            ... done (  0.0 sec) Dimension = 44
Save PGC pre-screening integrals            ... done (  0.0 sec) Dimension = 44
Calculate PGC overlap integrals             ... done (  0.0 sec) Dimension = 32
Calculating pre-screening integrals (ORCA)  ... done (  0.0 sec) Dimension = 32
Check shell pair data                       ... done (  0.0 sec)
Shell pair information
Shell pair cut-off parameter TPreSel        ...   2.5e-12
Total number of shell pairs                 ...       990
Shell pairs after pre-screening             ...       950
Total number of primitive shell pairs       ...      1390
Primitive shell pairs kept                  ...      1275
          la=0 lb=0:    311 shell pairs
          la=1 lb=0:    260 shell pairs
          la=1 lb=1:     55 shell pairs
          la=2 lb=0:    156 shell pairs
          la=2 lb=1:     60 shell pairs
          la=2 lb=2:     21 shell pairs
          la=3 lb=0:     52 shell pairs
          la=3 lb=1:     20 shell pairs
          la=3 lb=2:     12 shell pairs
          la=3 lb=3:      3 shell pairs

Calculating one electron integrals          ... done (  0.0 sec)
Calculating RI/J V-Matrix + Cholesky decomp.... done (  0.0 sec)
Calculating Nuclear repulsion               ... done (  0.0 sec) ENN=     31.400726326291 Eh

Diagonalization of the overlap matrix:
Smallest eigenvalue                        ... 2.200e-03
Time for diagonalization                   ...    0.000 sec
Threshold for overlap eigenvalues          ... 1.000e-07
Number of eigenvalues below threshold      ... 0
Time for construction of square roots      ...    0.000 sec
Total time needed                          ...    0.001 sec

-------------------
DFT GRID GENERATION
-------------------

General Integration Accuracy     IntAcc      ... 4.388
Radial Grid Type                 RadialGrid  ... OptM3 with GC (2021)
Angular Grid (max. ang.)         AngularGrid ... 4 (Lebedev-302)
Angular grid pruning method      GridPruning ... 4 (adaptive)
Weight generation scheme         WeightScheme... mBecke (2022)
Basis function cutoff            BFCut       ... 1.0000e-11
Integration weight cutoff        WCut        ... 1.0000e-14
Partially contracted basis set               ... off
Rotationally invariant grid construction     ... off
Angular grids for H and He will be reduced by one unit

Total number of grid points                  ...    18835
Total number of batches                      ...      296
Average number of points per batch           ...       63
Average number of grid points per atom       ...     4709

---------------------
SHARK GRID GENERATION
---------------------

General Integration Accuracy     IntAcc      ... 4.388
Radial Grid Type                 RadialGrid  ... OptM3 with GC (2021)
Angular Grid (max. ang.)         AngularGrid ... 4 (Lebedev-302)
Angular grid pruning method      GridPruning ... 4 (adaptive)
Weight generation scheme         WeightScheme... mBecke (2022)
Basis function cutoff            BFCut       ... 1.0000e-11
Integration weight cutoff        WCut        ... 1.0000e-14
Partially contracted basis set               ... off
Rotationally invariant grid construction     ... off
Angular grids for H and He will be reduced by one unit
Steep s-basis detected: some atoms will have their radial
                        grid points doubled.

Total number of grid points                  ...    31269
Total number of batches                      ...      491
Average number of points per batch           ...       63
Average number of grid points per atom       ...     7817

--------------------
COSX GRID GENERATION
--------------------

GRIDX 1
-------
General Integration Accuracy     IntAcc      ... 3.816
Radial Grid Type                 RadialGrid  ... OptM3 with GC (2021)
Angular Grid (max. ang.)         AngularGrid ... 1 (Lebedev-50)
Angular grid pruning method      GridPruning ... 4 (adaptive)
Weight generation scheme         WeightScheme... mBecke (2022)
Basis function cutoff            BFCut       ... 1.0000e-11
Integration weight cutoff        WCut        ... 1.0000e-14
Partially contracted basis set               ... on
Rotationally invariant grid construction     ... off
Angular grids for H and He will be reduced by one unit

Total number of grid points                  ...     2416
Total number of batches                      ...       22
Average number of points per batch           ...      109
Average number of grid points per atom       ...      604
UseSFitting                                  ... on

GRIDX 2
-------
General Integration Accuracy     IntAcc      ... 4.020
Radial Grid Type                 RadialGrid  ... OptM3 with GC (2021)
Angular Grid (max. ang.)         AngularGrid ... 2 (Lebedev-110)
Angular grid pruning method      GridPruning ... 4 (adaptive)
Weight generation scheme         WeightScheme... mBecke (2022)
Basis function cutoff            BFCut       ... 1.0000e-11
Integration weight cutoff        WCut        ... 1.0000e-14
Partially contracted basis set               ... on
Rotationally invariant grid construction     ... off
Angular grids for H and He will be reduced by one unit

Total number of grid points                  ...     5362
Total number of batches                      ...       44
Average number of points per batch           ...      121
Average number of grid points per atom       ...     1340
UseSFitting                                  ... on

GRIDX 3
-------
General Integration Accuracy     IntAcc      ... 4.338
Radial Grid Type                 RadialGrid  ... OptM3 with GC (2021)
Angular Grid (max. ang.)         AngularGrid ... 3 (Lebedev-194)
Angular grid pruning method      GridPruning ... 4 (adaptive)
Weight generation scheme         WeightScheme... mBecke (2022)
Basis function cutoff            BFCut       ... 1.0000e-11
Integration weight cutoff        WCut        ... 1.0000e-14
Partially contracted basis set               ... on
Rotationally invariant grid construction     ... off
Angular grids for H and He will be reduced by one unit

Total number of grid points                  ...    11891
Total number of batches                      ...       94
Average number of points per batch           ...      126
Average number of grid points per atom       ...     2973
UseSFitting                                  ... on
Initializing property integral containers    ... done (  0.0 sec)

SHARK setup successfully completed in   0.3 seconds

Maximum memory used throughout the entire STARTUP-calculation: 19.4 MB
Occupation numbers will be reassigned to an Aufbau configuration
             **** ENERGY FILE WAS UPDATED (H2CO.en.tmp) ****
Finished Guess after   0.0 sec
Maximum memory used throughout the entire GUESS-calculation: 8.8 MB
----------------------------------------D-I-I-S--------------------------------------------
Iteration    Energy (Eh)           Delta-E    RMSDP     MaxDP     DIISErr   Damp  Time(sec)
-------------------------------------------------------------------------------------------
               ***  Starting incremental Fock matrix formation  ***
                              *** Initializing SOSCF ***
---------------------------------------S-O-S-C-F--------------------------------------
Iteration    Energy (Eh)           Delta-E    RMSDP     MaxDP     MaxGrad    Time(sec)
--------------------------------------------------------------------------------------
    1    -114.4902630419417306     0.00e+00  3.05e-05  5.24e-04  8.40e-05     0.2
               *** Restarting incremental Fock matrix formation ***
    2    -114.4902658769940302    -2.84e-06  2.95e-05  3.98e-04  1.61e-04     0.2
    3    -114.4902657036565898     1.73e-07  1.23e-05  1.99e-04  3.36e-04     0.2
    4    -114.4902661978152736    -4.94e-07  7.07e-06  1.12e-04  6.68e-05     0.2
    5    -114.4902661991342114    -1.32e-09  4.08e-06  5.58e-05  5.90e-05     0.2
                 **** Energy Check signals convergence ****

               *****************************************************
               *                     SUCCESS                       *
               *           SCF CONVERGED AFTER   5 CYCLES          *
               *****************************************************

Recomputing exchange energy using gridx3       ... done (    0.295 sec)
Old exchange energy                            :     -2.812042137 Eh
New exchange energy                            :     -2.812014734 Eh
Exchange energy change after final integration :      0.000027404 Eh
Total energy after final integration           :   -114.490238795 Eh
             **** ENERGY FILE WAS UPDATED (H2CO.en.tmp) ****

----------------
TOTAL SCF ENERGY
----------------

Total Energy       :       -114.49023879546432 Eh           -3115.43778 eV

Components:
Nuclear Repulsion  :         31.40072632629067 Eh             854.45720 eV
Electronic Energy  :       -145.89099252542488 Eh           -3969.89573 eV
One Electron Energy:       -217.75829926821447 Eh           -5925.50457 eV
Two Electron Energy:         71.86730674278959 Eh            1955.60884 eV

Virial components:
Potential Energy   :       -228.34831110378241 Eh           -6213.67344 eV
Kinetic Energy     :        113.85807230831810 Eh            3098.23566 eV
Virial Ratio       :          2.00555223247970

DFT components:
N(Alpha)           :        8.000003964718 electrons
N(Beta)            :        8.000003964718 electrons
N(Total)           :       16.000007929436 electrons
E(X)               :      -11.203408832370 Eh       
E(C)               :       -0.639091271358 Eh       
E(XC)              :      -11.842500103728 Eh       

---------------
SCF CONVERGENCE
---------------

  Last Energy change         ...    1.3189e-09  Tolerance :   1.0000e-08
  Last MAX-Density change    ...    5.5818e-05  Tolerance :   1.0000e-07
  Last RMS-Density change    ...    4.0835e-06  Tolerance :   5.0000e-09
  Last DIIS Error            ...    1.0740e-03  Tolerance :   5.0000e-07
  Last Orbital Gradient      ...    5.9031e-05  Tolerance :   1.0000e-05
  Last Orbital Rotation      ...    4.3639e-05  Tolerance :   1.0000e-05


Total SCF time: 0 days 0 hours 0 min 1 sec 
Finished LeanSCF after   1.3 sec

Maximum memory used throughout the entire LEANSCF-calculation: 9.1 MB

-------------------------   --------------------
FINAL SINGLE POINT ENERGY      -114.490238795464
-------------------------   --------------------

------------------------------------------------------------------------------
                         ORCA SCF GRADIENT CALCULATION
------------------------------------------------------------------------------

Nuc. rep. gradient        (SHARK) ... done (  0.0 sec)
HCore & Overlap gradient  (SHARK) ... done (  0.0 sec)
Split-RIJ-J gradient      (SHARK) ... done (  0.1 sec)
COSX-gradient                     ... done (  1.6 sec)
XC gradient                       ... done (  0.2 sec)

------------------
CARTESIAN GRADIENT
------------------

   1   C   :    0.000387812    0.000000009   -0.000000318
   2   O   :   -0.000869821    0.000000000    0.000000110
   3   H   :    0.000241035    0.000297963    0.000000063
   4   H   :    0.000240974   -0.000297971    0.000000145

Difference to translation invariance:
           :    0.0000000001    0.0000000000   -0.0000000000

Difference to rotation invariance:
           :   -0.0000001233    0.0000000364   -0.0000000973

Norm of the Cartesian gradient     ...    0.0010957741
RMS gradient                       ...    0.0003163227
MAX gradient                       ...    0.0008698207

-------
TIMINGS
-------

Total SCF gradient time     ....        1.887 sec

Densities                   ....       0.000 sec  (  0.0%)
One electron gradient       ....       0.008 sec  (  0.4%)
RI-J Coulomb gradient       ....       0.077 sec  (  4.1%)
COSX gradient               ....       1.556 sec  ( 82.5%)
XC gradient                 ....       0.246 sec  ( 13.1%)

Maximum memory used throughout the entire SCFGRAD-calculation: 11.5 MB
------------------------------------------------------------------------------
                         ORCA GEOMETRY RELAXATION STEP
------------------------------------------------------------------------------

Reading the OPT-File                    .... done
Getting information on internals        .... done
Copying old internal coords+grads       .... done
Making the new internal coordinates     .... (2022 redundants) done
Validating the new internal coordinates .... (2022 redundants) done
Calculating the B-matrix                .... done
Calculating the G,G- and P matrices     .... done
Transforming gradient to internals      .... done
Projecting the internal gradient        .... done
Number of atoms                         ....   4
Number of internal coordinates          ....   7
Current Energy                          ....  -114.490238795 Eh
Current gradient norm                   ....     0.001095774 Eh/bohr
Maximum allowed component of the step   ....  0.300
Current trust radius                    ....  0.300
Updating the Hessian (BFGS)             .... done
Forming the augmented Hessian           .... done
Diagonalizing the augmented Hessian     .... done
Last element of RFO vector              ....  0.999995415
Lowest eigenvalues of augmented Hessian:
 -0.000002794  0.117019865  0.257380117  0.337860367  0.338468622
Length of the computed step             ....  0.003028125
The final length of the internal step   ....  0.003028125
Converting the step to Cartesian space:
 Initial RMS(Int)=    0.0011445237
Transforming coordinates:
 Iter   0:  RMS(Cart)=    0.0009691727 RMS(Int)=    0.0011445830
done
Storing new coordinates                 .... done
The predicted energy change is          ....    -0.000001397
Previously predicted energy change      ....    -0.000012413
Actually observed energy change         ....    -0.000015401
Ratio of predicted to observed change   ....     1.240651768
New trust radius                        ....     0.450000000

                                .--------------------.
          ----------------------|Geometry convergence|-------------------------
          Item                value                   Tolerance       Converged
          ---------------------------------------------------------------------
          Energy change      -0.0000154005            0.0000050000      NO
          RMS gradient        0.0004089978            0.0001000000      NO
          MAX gradient        0.0008698207            0.0003000000      NO
          RMS step            0.0011445237            0.0020000000      YES
          MAX step            0.0022187125            0.0040000000      YES
          ........................................................
          Max(Bonds)      0.0006      Max(Angles)    0.13
          Max(Dihed)        0.00      Max(Improp)    0.00
          ---------------------------------------------------------------------

The optimization has not yet converged - more geometry cycles are needed


    ---------------------------------------------------------------------------
                         Redundant Internal Coordinates
                            (Angstroem and degrees)

        Definition                    Value    dE/dq     Step     New-Value
    ----------------------------------------------------------------------------
     1. B(O   1,C   0)                1.1988 -0.000870  0.0006    1.1994   
     2. B(H   2,C   0)                1.1072  0.000125 -0.0003    1.1070   
     3. B(H   3,C   0)                1.1072  0.000125 -0.0003    1.1070   
     4. A(O   1,C   0,H   3)          122.03 -0.000253    0.06    122.10   
     5. A(H   2,C   0,H   3)          115.94  0.000505   -0.13    115.81   
     6. A(O   1,C   0,H   2)          122.03 -0.000253    0.06    122.10   
     7. I(O   1,H   3,H   2,C   0)     -0.00 -0.000000    0.00      0.00   
    ----------------------------------------------------------------------------

Geometry step timings:
Preparation and reading OPT file:      0.000 s ( 0.524 %)
Internal coordinates            :      0.000 s ( 0.142 %)
B/P matrices and projection     :      0.000 s ( 0.850 %)
Hessian update/contruction      :      0.000 s ( 0.935 %)
Making the step                 :      0.000 s ( 0.326 %)
Converting the step to Cartesian:      0.000 s ( 0.127 %)
Storing new data                :      0.000 s ( 0.113 %)
Checking convergence            :      0.000 s ( 0.071 %)
Final printing                  :      0.007 s (96.899 %)
Total time                      :      0.007 s

Time for energy+gradient        :      3.603 s
Time for complete geometry iter :      3.619 s

         *************************************************************
         *                GEOMETRY OPTIMIZATION CYCLE   3            *
         *************************************************************
---------------------------------
CARTESIAN COORDINATES (ANGSTROEM)
---------------------------------
  C     -0.428651   -1.070959    0.000010
  O      0.770786   -1.070959   -0.000017
  H     -1.016834   -0.133166    0.000004
  H     -1.016834   -2.008752    0.000043

----------------------------
CARTESIAN COORDINATES (A.U.)
----------------------------
  NO LB      ZA    FRAG     MASS         X           Y           Z
   0 C     6.0000    0    12.011   -0.810032   -2.023819    0.000019
   1 O     8.0000    0    15.999    1.456575   -2.023819   -0.000032
   2 H     1.0000    0     1.008   -1.921538   -0.251647    0.000008
   3 H     1.0000    0     1.008   -1.921538   -3.795991    0.000081

--------------------------------
INTERNAL COORDINATES (ANGSTROEM)
--------------------------------
 C      0   0   0     0.000000000000     0.00000000     0.00000000
 O      1   0   0     1.199437050869     0.00000000     0.00000000
 H      1   2   0     1.106985175608   122.09593037     0.00000000
 H      1   2   3     1.106984981037   122.09592300   179.99996370

---------------------------
INTERNAL COORDINATES (A.U.)
---------------------------
 C      0   0   0     0.000000000000     0.00000000     0.00000000
 O      1   0   0     2.266607541020     0.00000000     0.00000000
 H      1   2   0     2.091898816209   122.09593037     0.00000000
 H      1   2   3     2.091898448525   122.09592300   179.99996370

------------------------------------------------------------------------------
                   ___                                                        
                  /   \      - P O W E R E D   B Y -                         
                 /     \                                                     
                 |  |  |   _    _      __       _____    __    __             
                 |  |  |  | |  | |    /  \     |  _  \  |  |  /  |          
[...]
  0-1A  -> 40-1A   22.464563  181188.9    55.2   0.002585821   0.00320   0.00000   0.00000   0.05659
  0-1A  -> 41-1A   22.863227  184404.4    54.2   0.000000000   0.00000   0.00000  -0.00000   0.00000
  0-1A  -> 42-1A   22.912111  184798.7    54.1   0.015702791   0.01983   0.00000   0.14083  -0.00000
  0-1A  -> 43-1A   23.144715  186674.7    53.6   0.023417431   0.02988   0.17285   0.00000  -0.00000
  0-1A  -> 44-1A   23.513131  189646.2    52.7   0.045787717   0.05935  -0.00001  -0.00001  -0.24361
  0-1A  -> 45-1A   23.954107  193202.9    51.8   0.015067807   0.01990   0.00000   0.00000   0.14105
  0-1A  -> 46-1A   24.037027  193871.7    51.6   0.000141957   0.00019  -0.00000  -0.01371   0.00000
  0-1A  -> 47-1A   24.073491  194165.8    51.5   0.058947457   0.07822   0.27969   0.00000  -0.00001
  0-1A  -> 48-1A   24.524634  197804.5    50.6   0.171608681   0.23200   0.00000   0.48166  -0.00001
  0-1A  -> 49-1A   24.724098  199413.3    50.1   0.066602839   0.09077  -0.30128   0.00001   0.00001
  0-1A  -> 50-1A   24.904105  200865.2    49.8   0.139895109   0.19205   0.43823  -0.00001  -0.00001

------------------------------------------------------------------------------------------
                     CD SPECTRUM VIA TRANSITION ELECTRIC DIPOLE MOMENTS    
------------------------------------------------------------------------------------------
     Transition      Energy     Energy  Wavelength    R        MX        MY        MZ   
                      (eV)      (cm-1)    (nm)   (1e40*cgs)   (au)      (au)      (au)  
------------------------------------------------------------------------------------------
  0-1A  ->  1-1A    4.049943   32665.0   306.1   -0.00002   0.59205   0.00000  -0.00001
  0-1A  ->  2-1A    7.666514   61834.6   161.7   -0.00001   0.00001   0.00001   0.34935
  0-1A  ->  3-1A    9.218865   74355.2   134.5   -0.00000  -0.00000   0.71346  -0.00001
  0-1A  ->  4-1A    9.275255   74810.0   133.7    0.00001   0.00000   0.00001   0.00000
  0-1A  ->  5-1A    9.929542   80087.2   124.9   -0.00002   0.00001   0.00001   0.58030
  0-1A  ->  6-1A   10.220794   82436.3   121.3   -0.00016   0.32401   0.00000  -0.00001
  0-1A  ->  7-1A   10.767650   86847.0   115.1    0.00017   0.00000  -0.00000   0.00000
  0-1A  ->  8-1A   11.129801   89767.9   111.4    0.00000  -0.00000   0.04678  -0.00000
  0-1A  ->  9-1A   12.648212  102014.7    98.0    0.00000  -0.00841  -0.00000   0.00000
  0-1A  -> 10-1A   12.736873  102729.8    97.3   -0.00000  -0.00000  -0.00000  -0.00000
  0-1A  -> 11-1A   13.555877  109335.5    91.5   -0.00000   0.03354  -0.00000  -0.00000
  0-1A  -> 12-1A   13.617648  109833.8    91.0   -0.00014   0.00000  -0.00522  -0.00000
  0-1A  -> 13-1A   13.658459  110162.9    90.8    0.00020  -0.00000  -0.00000  -0.16613
  0-1A  -> 14-1A   14.148383  114114.4    87.6   -0.00002   0.00001   0.00001   0.24718
  0-1A  -> 15-1A   14.545259  117315.4    85.2   -0.00004   0.00001   0.00001   0.37256
  0-1A  -> 16-1A   14.961335  120671.3    82.9    0.00000   0.00000  -0.00000   0.00000
  0-1A  -> 17-1A   15.336838  123700.0    80.8    0.00002  -0.00000   0.25551  -0.00001
  0-1A  -> 18-1A   15.535267  125300.4    79.8   -0.00001   0.00000  -0.00000  -0.00000
  0-1A  -> 19-1A   15.965209  128768.1    77.7    0.00000   0.00000  -0.00000   0.00000
  0-1A  -> 20-1A   16.253621  131094.3    76.3    0.00000  -0.00001  -0.00001  -0.38307
  0-1A  -> 21-1A   17.282355  139391.6    71.7   -0.00000  -0.00000   0.00000  -0.00000
  0-1A  -> 22-1A   17.838727  143879.1    69.5   -0.00008   0.00000  -0.01185   0.00000
  0-1A  -> 23-1A   18.052163  145600.5    68.7    0.00002  -0.00000  -0.00000  -0.08634
  0-1A  -> 24-1A   18.415941  148534.6    67.3    0.00000  -0.02723  -0.00000   0.00000
  0-1A  -> 25-1A   18.589322  149933.0    66.7   -0.00001   0.00000   0.00000   0.00000
  0-1A  -> 26-1A   18.665459  150547.1    66.4   -0.00006  -0.00000  -0.14733   0.00000
  0-1A  -> 27-1A   18.878641  152266.5    65.7    0.00008  -0.00000  -0.00000  -0.18808
  0-1A  -> 28-1A   18.925922  152647.9    65.5   -0.00000  -0.00000  -0.00000  -0.00001
  0-1A  -> 29-1A   19.042629  153589.2    65.1   -0.00000  -0.00000  -0.00000  -0.00000
  0-1A  -> 30-1A   19.089945  153970.8    64.9    0.00001  -0.00000  -0.00000  -0.12601
  0-1A  -> 31-1A   19.513389  157386.1    63.5    0.00001  -0.02431   0.00000   0.00000
  0-1A  -> 32-1A   19.881169  160352.5    62.4    0.00000  -0.00000  -0.00000  -0.12284
  0-1A  -> 33-1A   20.268715  163478.2    61.2   -0.00001   0.00000  -0.00000  -0.00000
  0-1A  -> 34-1A   20.378733  164365.6    60.8    0.00022   0.00000   0.62384  -0.00001
  0-1A  -> 35-1A   20.449217  164934.1    60.6   -0.00021  -0.00001  -0.00000  -0.33267
  0-1A  -> 36-1A   20.830057  168005.8    59.5    0.00006   0.00001   0.00001   0.39140
  0-1A  -> 37-1A   21.152738  170608.4    58.6    0.00000   0.05042   0.00000  -0.00000
  0-1A  -> 38-1A   21.400293  172605.0    57.9   -0.00000   0.00000   0.00000  -0.00000
  0-1A  -> 39-1A   21.583683  174084.2    57.4   -0.00003  -0.00000   0.00637   0.00000
  0-1A  -> 40-1A   22.464563  181188.9    55.2    0.00000  -0.00000   0.28817  -0.00001
  0-1A  -> 41-1A   22.863227  184404.4    54.2    0.00000   0.08374   0.00000  -0.00000
  0-1A  -> 42-1A   22.912111  184798.7    54.1    0.00003   0.00000   0.00000   0.15947
  0-1A  -> 43-1A   23.144715  186674.7    53.6    0.00000   0.00000  -0.00000  -0.00000
  0-1A  -> 44-1A   23.513131  189646.2    52.7    0.00006   0.00000  -0.16265   0.00000
  0-1A  -> 45-1A   23.954107  193202.9    51.8    0.00005  -0.00000  -0.13433   0.00000
  0-1A  -> 46-1A   24.037027  193871.7    51.6    0.00001  -0.00000  -0.00000  -0.14573
  0-1A  -> 47-1A   24.073491  194165.8    51.5    0.00001   0.00000  -0.00000  -0.00000
  0-1A  -> 48-1A   24.524634  197804.5    50.6   -0.00007  -0.00000  -0.00000  -0.12089
  0-1A  -> 49-1A   24.724098  199413.3    50.1   -0.00001   0.00000  -0.00000  -0.00000
  0-1A  -> 50-1A   24.904105  200865.2    49.8   -0.00006  -0.00000   0.00000   0.00001

------------------------------------------------------------------------------------------
                     CD SPECTRUM VIA TRANSITION VELOCITY DIPOLE MOMENTS    
------------------------------------------------------------------------------------------
     Transition      Energy     Energy  Wavelength    R        MX        MY        MZ   
                      (eV)      (cm-1)    (nm)   (1e40*cgs)   (au)      (au)      (au)  
------------------------------------------------------------------------------------------
  0-1A  ->  1-1A    4.049943   32665.0   306.1   -0.00001   0.59205   0.00000  -0.00001
  0-1A  ->  2-1A    7.666514   61834.6   161.7   -0.00001   0.00001   0.00001   0.34935
  0-1A  ->  3-1A    9.218865   74355.2   134.5   -0.00002  -0.00000   0.71346  -0.00001
  0-1A  ->  4-1A    9.275255   74810.0   133.7    0.00001   0.00000   0.00001   0.00000
  0-1A  ->  5-1A    9.929542   80087.2   124.9   -0.00001   0.00001   0.00001   0.58030
  0-1A  ->  6-1A   10.220794   82436.3   121.3   -0.00008   0.32401   0.00000  -0.00001
  0-1A  ->  7-1A   10.767650   86847.0   115.1    0.00006   0.00000  -0.00000   0.00000
  0-1A  ->  8-1A   11.129801   89767.9   111.4    0.00000  -0.00000   0.04678  -0.00000
  0-1A  ->  9-1A   12.648212  102014.7    98.0    0.00000  -0.00841  -0.00000   0.00000
  0-1A  -> 10-1A   12.736873  102729.8    97.3   -0.00000  -0.00000  -0.00000  -0.00000
  0-1A  -> 11-1A   13.555877  109335.5    91.5   -0.00000   0.03354  -0.00000  -0.00000
  0-1A  -> 12-1A   13.617648  109833.8    91.0   -0.00013   0.00000  -0.00522  -0.00000
  0-1A  -> 13-1A   13.658459  110162.9    90.8    0.00019  -0.00000  -0.00000  -0.16613
  0-1A  -> 14-1A   14.148383  114114.4    87.6   -0.00001   0.00001   0.00001   0.24718
  0-1A  -> 15-1A   14.545259  117315.4    85.2   -0.00002   0.00001   0.00001   0.37256
  0-1A  -> 16-1A   14.961335  120671.3    82.9    0.00000   0.00000  -0.00000   0.00000
  0-1A  -> 17-1A   15.336838  123700.0    80.8    0.00001  -0.00000   0.25551  -0.00001
  0-1A  -> 18-1A   15.535267  125300.4    79.8   -0.00001   0.00000  -0.00000  -0.00000
  0-1A  -> 19-1A   15.965209  128768.1    77.7    0.00000   0.00000  -0.00000   0.00000
  0-1A  -> 20-1A   16.253621  131094.3    76.3   -0.00001  -0.00001  -0.00001  -0.38307
  0-1A  -> 21-1A   17.282355  139391.6    71.7   -0.00000  -0.00000   0.00000  -0.00000
  0-1A  -> 22-1A   17.838727  143879.1    69.5   -0.00005   0.00000  -0.01185   0.00000
  0-1A  -> 23-1A   18.052163  145600.5    68.7    0.00001  -0.00000  -0.00000  -0.08634
  0-1A  -> 24-1A   18.415941  148534.6    67.3    0.00000  -0.02723  -0.00000   0.00000
  0-1A  -> 25-1A   18.589322  149933.0    66.7   -0.00000   0.00000   0.00000   0.00000
  0-1A  -> 26-1A   18.665459  150547.1    66.4   -0.00004  -0.00000  -0.14733   0.00000
  0-1A  -> 27-1A   18.878641  152266.5    65.7    0.00006  -0.00000  -0.00000  -0.18808
  0-1A  -> 28-1A   18.925922  152647.9    65.5    0.00000  -0.00000  -0.00000  -0.00001
  0-1A  -> 29-1A   19.042629  153589.2    65.1    0.00000  -0.00000  -0.00000  -0.00000
  0-1A  -> 30-1A   19.089945  153970.8    64.9    0.00001  -0.00000  -0.00000  -0.12601
  0-1A  -> 31-1A   19.513389  157386.1    63.5    0.00001  -0.02431   0.00000   0.00000
  0-1A  -> 32-1A   19.881169  160352.5    62.4    0.00000  -0.00000  -0.00000  -0.12284
  0-1A  -> 33-1A   20.268715  163478.2    61.2   -0.00001   0.00000  -0.00000  -0.00000
  0-1A  -> 34-1A   20.378733  164365.6    60.8    0.00016   0.00000   0.62384  -0.00001
  0-1A  -> 35-1A   20.449217  164934.1    60.6   -0.00013  -0.00001  -0.00000  -0.33267
  0-1A  -> 36-1A   20.830057  168005.8    59.5    0.00003   0.00001   0.00001   0.39140
  0-1A  -> 37-1A   21.152738  170608.4    58.6   -0.00000   0.05042   0.00000  -0.00000
  0-1A  -> 38-1A   21.400293  172605.0    57.9   -0.00000   0.00000   0.00000  -0.00000
  0-1A  -> 39-1A   21.583683  174084.2    57.4   -0.00002  -0.00000   0.00637   0.00000
  0-1A  -> 40-1A   22.464563  181188.9    55.2    0.00001  -0.00000   0.28817  -0.00001
  0-1A  -> 41-1A   22.863227  184404.4    54.2    0.00000   0.08374   0.00000  -0.00000
  0-1A  -> 42-1A   22.912111  184798.7    54.1    0.00001   0.00000   0.00000   0.15947
  0-1A  -> 43-1A   23.144715  186674.7    53.6    0.00000   0.00000  -0.00000  -0.00000
  0-1A  -> 44-1A   23.513131  189646.2    52.7    0.00002   0.00000  -0.16265   0.00000
  0-1A  -> 45-1A   23.954107  193202.9    51.8    0.00003  -0.00000  -0.13433   0.00000
  0-1A  -> 46-1A   24.037027  193871.7    51.6    0.00001  -0.00000  -0.00000  -0.14573
  0-1A  -> 47-1A   24.073491  194165.8    51.5    0.00001   0.00000  -0.00000  -0.00000
  0-1A  -> 48-1A   24.524634  197804.5    50.6   -0.00005  -0.00000  -0.00000  -0.12089
  0-1A  -> 49-1A   24.724098  199413.3    50.1   -0.00001   0.00000  -0.00000  -0.00000
  0-1A  -> 50-1A   24.904105  200865.2    49.8   -0.00004  -0.00000   0.00000   0.00001

Total run time:        2.806 sec

           *** ORCA-CIS/TD-DFT FINISHED WITHOUT ERROR ***
-----------------------
CIS/TD-DFT TOTAL ENERGY
-----------------------

    E(SCF)  =   -114.490240544 Eh
    DE(CIS) =      0.148832682 Eh (Root  1)
    ----------------------------- ---------
    E(tot)  =   -114.341407861 Eh


Maximum memory used throughout the entire CIS-calculation: 110.2 MB
=> NOW LEAVING ORCA_CIS

-------------------------   --------------------
FINAL SINGLE POINT ENERGY      -114.341407861357
-------------------------   --------------------


------------------------------------------------------------------------------
                              ORCA PROPERTY CALCULATIONS
------------------------------------------------------------------------------

GBWName                                 ... H2CO_job2.gbw
Number of atoms                         ...      4
Number of basis functions               ...    100
Max core memory                         ...   1024 MB

Electric properties:
Dipole moment                           ... YES
Quadrupole moment                       ...  NO
Static polarizability (Dipole/Dipole)   ...  NO
Static polarizability (Dipole/Quad.)    ...  NO
Static polarizability (Quad./Quad.)     ...  NO
Static polarizability (Velocity)        ...  NO

Atomic electric properties:
Dipole moment                           ...  NO
Quadrupole moment                       ...  NO
Static polarizability                   ...  NO

Choice of electric origin               ... Center of mass
Position of electric origin             ...     0.323355    -2.023819    -0.000007

General magnetic properties:
Magnetizability                         ...  NO

EPR properties:
g-Tensor (aka g-matrix)                 ...  NO
Zero-Field splitting spin-orbit         ...  NO
Zero-field splitting spin-spin          ...  NO
Hyperfine couplings                     ...  NO (   0 nuclei)
Quadrupole couplings                    ...  NO (   0 nuclei)
Contact density                         ...  NO (   0 nuclei)

NMR properties:
Chemical shifts                         ...  NO (   0 nuclei)
Spin-rotation constants                 ...  NO (   0 nuclei)
Spin-spin couplings                     ...  NO (   0 nuclei,    0 pairs)

Choice of magnetic origin               ... GIAO
Position of magnetic origin             ...     0.000000     0.000000     0.000000

Properties with geometric perturbations:
SCF Hessian                             ...  NO
IR spectrum                             ...  NO
VCD spectrum                            ...  NO
X-ray spectroscopy properties:
SCF XES/XAS/RIXS spectra                ...  NO


-------------
DIPOLE MOMENT
-------------

Method             : SCF
Type of density    : Electron Density
Multiplicity       :   1
Irrep              :   0
Energy             :  -114.4902405438170234 Eh
Relativity type    : 
Basis              : AO
                                X                 Y                 Z
Electronic contribution:      1.323587262       0.000000192      -0.000030089
Nuclear contribution   :     -2.220467621      -0.000000096       0.000050506
                        -----------------------------------------
Total Dipole Moment    :     -0.896880360       0.000000096       0.000020416
                        -----------------------------------------
Magnitude (a.u.)       :      0.896880360
Magnitude (Debye)      :      2.279688706



--------------------
Rotational spectrum 
--------------------
 
Rotational constants in cm-1:             9.512746             1.304810             1.147424 
Rotational constants in MHz :        285184.948015         39117.227378         34398.919597 

Dipole components along the rotational axes: 
x,y,z [a.u.] :    -0.896880    -0.000000     0.000000 
x,y,z [Debye]:    -2.279689    -0.000000     0.000000 

 

Dipole moment calculation done in   0.0 sec 

Maximum memory used throughout the entire PROP-calculation: 5.7 MB

--------------------------------
SUGGESTED CITATIONS FOR THIS RUN
--------------------------------

Below you find a list of papers that are relevant to this ORCA run
We neither can nor want to force you to cite these papers, but we appreciate if you do
You receive ORCA, which is the product of decades of hard work by many enthusiastic individuals, for free
The only thing we kindly ask in return is that you cite our papers,
We deeply appreciate it, if you show your appreciation for ORCA by not just citing the generic ORCA reference.

Please note that relegating all ORCA citations to the supporting information does *not* help us.
SI sections are not indexed - citations you put there will not count into any citation statistics
But we need these citations in order to attract the funding resources that allow us to do what we are doing

Therefore, if you are a happy ORCA user, please consider citing a few of the papers listed below in the main body of your paper

In addition to the list printed below, the program has created the file H2CO_job2.bibtex that contains the list in bibtex format
You can import this file easily into all common literature databanks and citation aid programs


List of essential papers. We consider these as the minimum necessary citations

  1. Neese,F.
     Software update: the ORCA program system, version 5.0
     WIRES Comput. Molec. Sci., 2022 12(1)e1606
     doi.org/10.1002/wcms.1606

List of papers to cite with high priority. The work reported in these papers was absolutely
necessary for this run to complete.
Our perspective: the developers of density functionals and basis sets usually get cited in chemistry papers
Good! But without the algorithms to do something with them, the functionals or basis sets would not do anything.
Hence, in our opinion, the algorithm design and method developments papers are equally worthy of getting cited

  1. Neese,F.; Olbrich,G.
     Efficient use of the resolution of the identity approximation in time-dependent density functional calculations with hybrid density functionals
     Chem. Phys. Lett., 2002 362 170-178
     doi.org/10.1016/s0009-2614(02)01053-9
  2. Neese,F.
     An improvement of the resolution of the identity approximation for the formation of the Coulomb matrix
     J. Comp. Chem., 2003 24(14)1740-1747
     doi.org/10.1002/jcc.10318
  3. Neese,F.; Wennmohs,F.; Hansen,A.; Becker,U.
     Efficient, approximate and parallel Hartree-Fock and hybrid DFT calculations. A 'chain-of-spheres' algorithm for the Hartree-Fock exchange
     Chem. Phys., 2009 356(1-3)98-109
     doi.org/10.1016/j.chemphys.2008.10.036
  4. Helmich-Paris,B.; de Souza,B.; Neese,F.; Izsák,R.
     An improved chain of spheres for exchange algorithm
     J. Chem. Phys., 2021 155 104109
     doi.org/doi: 10.1063/5.0058766.
  5. Neese,F.
     The SHARK Integral Generation and Digestion System
     J. Comp. Chem., 2022  1-16
     doi.org/10.1002/jcc.26942

List of suggested additional citations. These are papers that are important in the 'surrounding' of 
of this run, or papers that preceded the highly important papers. If you like your results we are grateful for a citation.

  1. Izsak,R.; Neese,F.
     An overlap fitted chain of spheres exchange method
     J. Chem. Phys., 2011 135 144105
     doi.org/10.1063/1.3646921
  2. Izsak,R.; Hansen,A.; Neese,F.
     The resolution of identity and chain of spheres approximations for the LPNO-CCSD singles Fock term
     Molec. Phys., 2012 110 2413-2417
     doi.org/10.1080/00268976.2012.687466
  3. Neese,F.
     The ORCA program system
     WIRES Comput. Molec. Sci., 2012 2(1)73-78
     doi.org/10.1002/wcms.81
  4. Izsak,R.; Neese,F.; Klopper,W.
     Robust fitting techniques in the chain of spheres approximation to the Fock exchange: The role of the complementary space
     J. Chem. Phys., 2013 139 
     doi.org/10.1063/1.4819264
  5. Neese,F.
     Software update: the ORCA program system, version 4.0
     WIRES Comput. Molec. Sci., 2018 8(1)1-6
     doi.org/10.1002/wcms.1327
  6. Neese,F.; Wennmohs,F.; Becker,U.; Riplinger,C.
     The ORCA quantum chemistry program package
     J. Chem. Phys., 2020 152 Art. No. L224108
     doi.org/10.1063/5.0004608

List of optional additional citations

  1. Neese,F.
     Approximate second-order SCF convergence for spin unrestricted wavefunctions
     Chem. Phys. Lett., 2000 325(1-3)93-98
     doi.org/10.1016/s0009-2614(00)00662-x

Timings for individual modules:

Sum of individual times          ...        4.085 sec (=   0.068 min)
Startup calculation              ...        0.321 sec (=   0.005 min)   7.8 %
SCF iterations                   ...        0.868 sec (=   0.014 min)  21.2 %
Property integrals               ...        0.045 sec (=   0.001 min)   1.1 %
Property calculations            ...        0.032 sec (=   0.001 min)   0.8 %
CIS module                       ...        2.821 sec (=   0.047 min)  69.0 %



                             ****ORCA TERMINATED NORMALLY****
TOTAL RUN TIME: 0 days 0 hours 0 minutes 18 seconds 49 msec
