[Molden Format]
[Title]
 Molden file created by orca_2mkl for BaseName=H2CO

[Atoms] AU
C    1   6         -0.8096412803        -2.0238191495         0.0000191172 
O    2   8          1.4568515318        -2.0238191670        -0.0000323995 
H    3   1         -1.9218719901        -0.2520828652         0.0000076364 
H    4   1         -1.9218723778        -3.7955556610         0.0000812350 
[GTO]
  1 0
s   8 1.0 
     8236.0000000000         0.3342267437
     1235.0000000000         0.6230746416
      280.8000000000         1.0531059072
       79.2700000000         1.5831631342
       25.5900000000         1.9450988312
        8.9970000000         1.6429469100
        3.3190000000         0.6196591261
        0.3643000000        -0.0030667276
s   8 1.0 
     8236.0000000000        -0.1210101098
     1235.0000000000        -0.2265691066
      280.8000000000        -0.3857532897
       79.2700000000        -0.5967016836
       25.5900000000        -0.7858351262
        8.9970000000        -0.8165330321
        3.3190000000        -0.5188700868
        0.3643000000         0.3477346660
s   1 1.0 
        0.9059000000         0.6617901318
s   1 1.0 
        0.1285000000         0.1529633682
s   1 1.0 
        0.0440200000         0.0684932259
p   3 1.0 
       18.7100000000         2.1868515589
        4.1330000000         2.0503123413
        1.2000000000         1.4599445297
p   1 1.0 
        0.3827000000         0.4290551959
p   1 1.0 
        0.1209000000         0.1016185431
p   1 1.0 
        0.0356900000         0.0221117580
d   1 1.0 
        1.0970000000         3.3522135855
d   1 1.0 
        0.3180000000         0.3838994974
d   1 1.0 
        0.1000000000         0.0506955785
f   1 1.0 
        0.7610000000         3.0840084332
f   1 1.0 
        0.2680000000         0.2946479106

  2 0
s   8 1.0 
    15330.0000000000         0.5107820689
     2299.0000000000         0.9520320559
      522.4000000000         1.6143309227
      147.3000000000         2.4433650471
       47.5500000000         3.0486061870
       16.7600000000         2.6183461361
        6.2070000000         1.0052339944
        0.6882000000        -0.0044964733
s   8 1.0 
    15330.0000000000        -0.1936657939
     2299.0000000000        -0.3632249960
      522.4000000000        -0.6192189910
      147.3000000000        -0.9677187516
       47.5500000000        -1.2940243602
       16.7600000000        -1.3817163263
        6.2070000000        -0.8447542687
        0.6882000000         0.5573175589
s   1 1.0 
        1.7520000000         1.0853271534
s   1 1.0 
        0.2384000000         0.2431586819
s   1 1.0 
        0.0737600000         0.1008731942
p   3 1.0 
       34.4600000000         4.8988750613
        7.7490000000         4.7502609215
        2.2800000000         3.2044979545
p   1 1.0 
        0.7156000000         0.9381623559
p   1 1.0 
        0.2140000000         0.2074709543
p   1 1.0 
        0.0597400000         0.0420989836
d   1 1.0 
        2.3140000000        12.3767310624
d   1 1.0 
        0.6450000000         1.3234257612
d   1 1.0 
        0.2140000000         0.1919526830
f   1 1.0 
        1.4280000000        12.7097950062
f   1 1.0 
        0.5000000000         1.1986229503

  3 0
s   3 1.0 
       33.8700000000         0.2551080577
        5.0950000000         0.4600978881
        1.1590000000         0.6784140671
s   1 1.0 
        0.3258000000         0.3073430538
s   1 1.0 
        0.1027000000         0.1292968442
s   1 1.0 
        0.0252600000         0.0451580419
p   1 1.0 
        1.4070000000         2.1842769845
p   1 1.0 
        0.3880000000         0.4364954740
p   1 1.0 
        0.1020000000         0.0821656514
d   1 1.0 
        1.0570000000         3.1412413909
d   1 1.0 
        0.2470000000         0.2467117034

  4 0
s   3 1.0 
       33.8700000000         0.2551080577
        5.0950000000         0.4600978881
        1.1590000000         0.6784140671
s   1 1.0 
        0.3258000000         0.3073430538
s   1 1.0 
        0.1027000000         0.1292968442
s   1 1.0 
        0.0252600000         0.0451580419
p   1 1.0 
        1.4070000000         2.1842769845
p   1 1.0 
        0.3880000000         0.4364954740
p   1 1.0 
        0.1020000000         0.0821656514
d   1 1.0 
        1.0570000000         3.1412413909
d   1 1.0 
        0.2470000000         0.2467117034

[5D]
[7F]
[9G]
[MO]
 Sym=     1a
 Ene= -1.92315915282086E+01
 Spin= Alpha
 Occup= 2.000000
  1      -0.0009520604217957
  2      -0.0021122343295403
  3      -0.0016035758337721
  4       0.0045609079777885
  5      -0.0005244605153862
  6      -0.0005348534207841
  7      -0.0000000006299344
  8       0.0000000130083284
  9      -0.0024699526627349
 10       0.0000000130270298
 11       0.0000000461089870
 12       0.0012746558370699
 13       0.0000000402217981
 14      -0.0000000085944591
 15      -0.0000178952306038
 16       0.0000000013215379
 17       0.0000000037396236
 18       0.0001321944464516
 19       0.0000000129207635
 20       0.0000000026801152
 21      -0.0003251592104057
 22      -0.0000000007373171
 23      -0.0014669441168279
 24      -0.0000001212185467
 25      -0.0000000471442102
 26       0.0016465433240240
 27      -0.0000000057370364
 28      -0.0003893855543900
 29      -0.0000001008547986
 30       0.0000000403534635
 31       0.0032208476269764
 32      -0.0000000065952573
 33       0.0000000125881593
 34      -0.0002457664055496
 35      -0.0000000004127936
 36      -0.0000000314864294
 37       0.0000000141233167
 38      -0.0007761591728944
 39      -0.0000000003043108
 40      -0.0000000071699765
 41       0.0000707812742642
 42      -0.0000000017016267
 43      -0.0000000544729326
 44       0.0000000319120830
 45      -0.0013473815110294
 46      -0.0000000020148451
 47      -0.9727523761858956
 48       0.0011547435553817
 49      -0.0499000778006311
 50      -0.0043883069727444
 51      -0.0001593574172146
 52       0.0015834028030194
 53       0.0000000005563645
 54      -0.0000000375040125
 55      -0.0000474842467933
 56      -0.0000000005352174
 57       0.0000000071348063
 58      -0.0034810007098951
 59      -0.0000000048398853
 60       0.0000001098218454
 61      -0.0003484776661727
 62       0.0000000015034061
 63       0.0000000116869861
 64       0.0001951025222505
 65       0.0000000165205239
 66      -0.0000000013575364
 67      -0.0003543934963148
 68      -0.0000000000666539
 69      -0.0005241916262744
 70      -0.0000000424732376
 71       0.0000000000465774
 72       0.0007295288123335
 73       0.0000000005793006
 74      -0.0014041656952450
 75      -0.0000001033463863
 76      -0.0000000153743366
 77       0.0013930950475836
 78       0.0000000020866699
 79       0.0000000070173884
 80      -0.0000702117915982
 81      -0.0000000000242365
 82      -0.0000000033857810
 83       0.0000000002637603
 84      -0.0000388619700253
 85       0.0000000000385756
 86      -0.0000000425810248
 87       0.0006862730232506
 88       0.0000000002720165
 89       0.0000000404360174
 90       0.0000000056686995
 91       0.0004222805561036
 92       0.0000000003967191
 93      -0.0002764152142256
 94      -0.0022412879160645
 95       0.0008765812215076
 96       0.0000575059611507
 97      -0.0001345619394524
 98       0.0001591396363940
 99       0.0000000002079553
100       0.0002707461206754
101       0.0007659251019290
102      -0.0000000258654676
103       0.0013459787392817
104       0.0011389408823872
105      -0.0000000547053245
106      -0.0000761947496680
107      -0.0000000070399441
108      -0.0000000004342416
109       0.0001489754909841
110       0.0000542771847772
111      -0.0000218125738200
112      -0.0000000063179341
113       0.0000000044525898
114       0.0003125940269392
115      -0.0001291173320945
116      -0.0002764160691806
117      -0.0022412560536730
118       0.0008766768222000
119       0.0000575094341097
120      -0.0001345619638625
121      -0.0001591390909242
122       0.0000000082214203
123       0.0002707512192570
124      -0.0007659129621462
125      -0.0000000163688784
126       0.0013459899781367
127      -0.0011389178689734
128      -0.0000000414155312
129      -0.0000761955832313
130      -0.0000000086523818
131      -0.0000000014332298
132       0.0001489748660696
133      -0.0000542758810969
134      -0.0000218134797863
135      -0.0000000241498042
136      -0.0000000012839898
137       0.0003125924689839
138       0.0001291180928055
 Sym=     1a
 Ene= -1.03264970384539E+01
 Spin= Alpha
 Occup= 2.000000
  1       0.9846365008068150
  2       0.0215493278731611
  3       0.0518364285570416
  4       0.0339810404059880
  5       0.0075544454299483
  6       0.0009075784269885
  7      -0.0000000017094871
  8      -0.0000000261909904
  9       0.0037746465132809
 10       0.0000000459128363
 11      -0.0000000538305198
 12      -0.0053817694575015
 13       0.0000002148823645
 14       0.0000001590629075
 15      -0.0001459453267992
 16       0.0000000157832696
 17       0.0000000114955182
 18      -0.0026279115227915
 19      -0.0000001310027033
 20      -0.0000000651021506
 21       0.0010983614819435
 22      -0.0000000023794009
 23      -0.0009342443744502
 24      -0.0000000135499620
 25      -0.0000001157308164
 26      -0.0013268978858722
 27      -0.0000000268237874
 28      -0.0001739562731985
 29       0.0000001471453965
 30      -0.0000001805458345
 31      -0.0065225384391902
 32      -0.0000000330819695
 33       0.0000000069015411
 34      -0.0002172800561304
 35      -0.0000000011704071
 36      -0.0000000744076466
 37       0.0000000641843242
 38      -0.0025561248038173
 39      -0.0000000000878386
 40      -0.0000000346915890
 41       0.0006300026132193
 42      -0.0000000085919913
 43       0.0000000988294989
 44      -0.0000001045816165
 45       0.0041658052905147
 46      -0.0000000132270044
 47       0.0007608718144952
 48       0.0019537882481728
 49       0.0009543914009449
 50      -0.0086788072078397
 51      -0.0028651287957409
 52      -0.0007415999966059
 53      -0.0000000003513360
 54       0.0000000156093379
 55       0.0032564580146614
 56       0.0000000003634418
 57      -0.0000000664250404
 58       0.0133094474200300
 59      -0.0000000254077350
 60      -0.0000002968023784
 61       0.0009777130455857
 62       0.0000000049974667
 63      -0.0000000319808462
 64      -0.0000799493392565
 65      -0.0000000065587999
 66      -0.0000000018257583
 67       0.0001236985130910
 68       0.0000000003491042
 69       0.0019906744351190
 70       0.0000001578589327
 71       0.0000000074352273
 72      -0.0033566300438068
 73       0.0000000005193242
 74       0.0032823972022576
 75       0.0000002084573909
 76       0.0000000680542386
 77      -0.0034909241678036
 78       0.0000000106753903
 79       0.0000000076660814
 80      -0.0001353056241289
 81      -0.0000000001323910
 82      -0.0000000148717329
 83       0.0000000080044372
 84      -0.0003518476501522
 85      -0.0000000000103764
 86       0.0000000773578877
 87      -0.0013047825482947
 88       0.0000000008496387
 89      -0.0000000889313821
 90      -0.0000000203916688
 91      -0.0014234987765125
 92       0.0000000007437662
 93       0.0006072825793205
 94      -0.0052502785657895
 95      -0.0168544648023467
 96      -0.0010325733499657
 97      -0.0005118415600716
 98       0.0006846915071784
 99      -0.0000000028760401
100      -0.0029440388487651
101       0.0046752781555903
102      -0.0000000311293572
103      -0.0055853207433771
104       0.0019424731955401
105       0.0000001086821512
106       0.0007840246714844
107      -0.0000000107446146
108       0.0000000082696792
109       0.0005851460477629
110       0.0013431501743657
111       0.0013359534151548
112       0.0000000322025588
113       0.0000000212559951
114      -0.0000213739522754
115       0.0008498178847196
116       0.0006072802365010
117      -0.0052501411604422
118      -0.0168539558165907
119      -0.0010325371575138
120      -0.0005118398200326
121      -0.0006846892877449
122       0.0000000314189496
123      -0.0029440242319675
124      -0.0046752267885973
125       0.0000001178356346
126      -0.0055852597103809
127      -0.0019423570557877
128       0.0000001112212302
129       0.0007840222882259
130       0.0000000418527547
131       0.0000000644996021
132       0.0005851433869333
133      -0.0013431467323289
134       0.0013359508539431
135       0.0000000303522875
136       0.0000000588848305
137      -0.0000213816178810
138      -0.0008498170319031
 Sym=     1a
 Ene= -1.09942255873492E+00
 Spin= Alpha
 Occup= 2.000000
  1       0.0217126637939808
  2      -0.2442411586199442
  3      -0.0565041013099848
  4      -0.1252045206434138
  5      -0.0027768603914235
  6      -0.1084758570365603
  7      -0.0000000246700923
  8       0.0000024860559908
  9      -0.0703473875026849
 10       0.0000004691923290
 11       0.0000015609366791
 12       0.0272410949923852
 13       0.0000001633381622
 14      -0.0000007204790520
 15       0.0022701059678907
 16       0.0000000280743304
 17      -0.0000000643355733
 18       0.0100869475079124
 19       0.0000006833559995
 20       0.0000000733339588
 21      -0.0139324550761210
 22      -0.0000000354199151
 23       0.0180702102030966
 24       0.0000007030156532
 25       0.0000006728296596
 26       0.0007541268953777
 27      -0.0000001403152891
 28      -0.0008046512047521
 29      -0.0000004072489198
 30       0.0000003348596974
 31       0.0174468879445102
 32      -0.0000000618028232
 33      -0.0000001012088756
 34       0.0017297279461007
 35      -0.0000000230351907
 36       0.0000002877975548
 37      -0.0000001593602603
 38       0.0084241895586041
 39       0.0000000074163727
 40       0.0000001314367062
 41      -0.0021041588850791
 42      -0.0000000084226420
 43       0.0000000224548821
 44      -0.0000001499758050
 45       0.0032366618067905
 46       0.0000001309016054
 47       0.0170919428323753
 48      -0.4516617234867205
 49      -0.1257603052946168
 50      -0.2490701806910226
 51      -0.0320118367476695
 52       0.0928829730443547
 53       0.0000000075690449
 54      -0.0000021113552645
 55       0.1117935013945993
 56       0.0000000137153193
 57      -0.0000025355773168
 58       0.0286609202198464
 59       0.0000001312170289
 60      -0.0000006294241098
 61       0.0017519118514325
 62       0.0000000261594434
 63      -0.0000000392424340
 64       0.0028253220555040
 65       0.0000002651091284
 66      -0.0000000335307381
 67      -0.0066747448114282
 68      -0.0000000073776314
 69       0.0078948153868990
 70       0.0000007136099399
 71      -0.0000000989814218
 72      -0.0182802679427907
 73       0.0000000066149530
 74      -0.0011035180603633
 75      -0.0000000919260575
 76      -0.0000000051775989
 77       0.0015741570813958
 78      -0.0000000406274266
 79       0.0000001121046301
 80      -0.0020564200792216
 81      -0.0000000006091456
 82      -0.0000001560166978
 83       0.0000000071433494
 84      -0.0029434405030414
 85      -0.0000000016304591
 86       0.0000000856536239
 87      -0.0016547079071715
 88       0.0000000069567234
 89      -0.0000001394288909
 90       0.0000000309794965
 91      -0.0033133730605639
 92       0.0000000118231413
 93      -0.0144537744291144
 94       0.0214700882779990
 95       0.0495429469304060
 96       0.0015165431791291
 97      -0.0008831161065634
 98      -0.0002410319085856
 99       0.0000000184421213
100       0.0083329285221790
101      -0.0118922311192052
102       0.0000000749018732
103       0.0165227319547588
104      -0.0076757835373413
105      -0.0000001734035360
106      -0.0001715362550494
107       0.0000000290377980
108      -0.0000000006999900
109      -0.0012735090331409
110      -0.0006503292731102
111      -0.0024596798148186
112      -0.0000000367340935
113      -0.0000000031738944
114       0.0010071524940149
115      -0.0035406084838163
116      -0.0144538056361121
117       0.0214708570836093
118       0.0495435716862682
119       0.0015166354342670
120      -0.0008831339811196
121       0.0002410521489349
122       0.0000000108164583
123       0.0083333962145578
124       0.0118925218633021
125      -0.0000004203582282
126       0.0165228699898316
127       0.0076759458646469
128      -0.0000004806457026
129      -0.0001715784831139
130       0.0000000049755775
131      -0.0000000595012982
132      -0.0012735045200123
133       0.0006504130944199
134      -0.0024597376422426
135      -0.0000001847740938
136      -0.0000001346904160
137       0.0010071649603621
138       0.0035407148289958
 Sym=     1a
 Ene= -6.59438632970104E-01
 Spin= Alpha
 Occup= 2.000000
  1       0.0167069328536838
  2      -0.3821491646213572
  3      -0.0934885711137955
  4      -0.2703066758427700
  5      -0.0180098812322997
  6       0.1150169242560176
  7       0.0000000056085875
  8      -0.0000026580397481
  9       0.1290475327816408
 10      -0.0000008202423306
 11      -0.0000028872195243
 12       0.0580845510633815
 13      -0.0000001499275269
 14      -0.0000011692871205
 15       0.0002866957059836
 16      -0.0000000025066612
 17       0.0000000210277686
 18       0.0040321263817191
 19       0.0000000272708411
 20       0.0000002973400401
 21       0.0072833135051576
 22       0.0000000702094171
 23       0.0114864742836485
 24       0.0000001765139207
 25       0.0000006025249768
 26       0.0109637026230097
 27       0.0000005142876831
 28       0.0046035069976513
 29       0.0000004218491349
 30      -0.0000001237868861
 31      -0.0113352584114292
 32       0.0000002871285876
 33       0.0000000562505041
 34      -0.0009337518887708
 35       0.0000000343571268
 36       0.0000000453360687
 37      -0.0000000801229745
 38       0.0021657072800693
 39      -0.0000000493079481
 40       0.0000001221717605
 41      -0.0023047251265486
 42       0.0000000152835018
 43       0.0000000855042942
 44      -0.0000003009820579
 45       0.0081870701614427
 46      -0.0000003576151263
 47      -0.0013199075417820
 48       0.2178041960650155
 49       0.0639991292131783
 50       0.2046437418595322
 51       0.0309802584734271
 52       0.0645968788622768
 53       0.0000001033712930
 54      -0.0000015001472376
 55       0.0722840368912596
 56      -0.0000000524710323
 57      -0.0000016540672089
 58       0.0342827613052052
 59      -0.0000005545083404
 60      -0.0000007894396651
 61       0.0001858460892342
 62      -0.0000001251289722
 63      -0.0000000191188518
 64       0.0014818581628508
 65       0.0000001054817032
 66       0.0000000298057593
 67      -0.0015298873535032
 68      -0.0000000506131488
 69       0.0028192756009042
 70       0.0000001710357872
 71       0.0000000474806965
 72      -0.0024133179102130
 73       0.0000000999622287
 74       0.0022053906259050
 75       0.0000001176675091
 76       0.0000000857281051
 77      -0.0008832431271009
 78       0.0000001892258865
 79       0.0000000182588975
 80      -0.0003009031735853
 81       0.0000000026976967
 82      -0.0000000306748152
 83       0.0000000084879214
 84      -0.0006429867290925
 85       0.0000000038872526
 86      -0.0000000057801648
 87       0.0003034465813472
 88      -0.0000000065493218
 89       0.0000000016086251
 90      -0.0000000042855318
 91       0.0001708829175492
 92       0.0000000246255897
 93      -0.1084002776447818
 94      -0.1172136854970203
 95       0.0009100913526793
 96       0.0014862570244097
 97      -0.0041612074338247
 98       0.0095725229763781
 99      -0.0000000951097248
100       0.0002305716117082
101       0.0092673363364921
102      -0.0000002258514783
103      -0.0026525672898496
104      -0.0119380034763493
105       0.0000002787275950
106       0.0012214341921534
107      -0.0000000200717450
108       0.0000000194304471
109       0.0018459004490774
110       0.0016692271062780
111      -0.0000204711231786
112      -0.0000000345970974
113       0.0000000230987577
114       0.0003055020946569
115       0.0000872851418779
116      -0.1084001597430392
117      -0.1172153117624929
118       0.0009090412755437
119       0.0014861636140278
120      -0.0041611848661438
121      -0.0095725480781762
122       0.0000003024168900
123       0.0002296389465236
124      -0.0092678685247023
125       0.0000001370072007
126      -0.0026526512959393
127       0.0119377709003356
128      -0.0000003230490706
129       0.0012214979260966
130       0.0000000430017364
131       0.0000001347620181
132       0.0018458834604045
133      -0.0016693726318302
134      -0.0000203924274887
135      -0.0000000546231847
136      -0.0000000165543519
137       0.0003054812069746
138      -0.0000874654281414
 Sym=     1a
 Ene= -5.17519393787158E-01
 Spin= Alpha
 Occup= 2.000000
  1       0.0000000065044598
  2       0.0000000106889549
  3       0.0000000812531799
  4      -0.0000031623928525
  5      -0.0000004476218955
  6      -0.0000000269311573
  7       0.2420682580090622
  8      -0.0000050139839617
  9       0.0000001785963140
 10       0.2972390221922877
 11      -0.0000061756574844
 12       0.0000006200839086
 13       0.1101952405962105
 14      -0.0000023185342332
 15       0.0000000369485194
 16      -0.0045626622419278
 17       0.0000000922460358
 18      -0.0000000175174296
 19      -0.0000000037146537
 20       0.0000000080477035
 21      -0.0000000155441659
 22      -0.0001554141838311
 23       0.0000002923271727
 24       0.0000005194694002
 25       0.0000005702566228
 26       0.0000002857490662
 27      -0.0240314432329705
 28       0.0000001469476697
 29       0.0000006223184907
 30       0.0000006529711866
 31       0.0000002960280173
 32      -0.0289676757188367
 33       0.0000001135601152
 34      -0.0000000088439896
 35      -0.0022354524642300
 36      -0.0000000753817596
 37      -0.0000002384149860
 38       0.0000000163911953
 39      -0.0057111078121505
 40       0.0000000716197883
 41      -0.0000000224521489
 42      -0.0013133295221900
 43      -0.0000001044199929
 44      -0.0000002481484947
 45       0.0000002339919100
 46      -0.0059451092200414
 47       0.0000000130650368
 48       0.0000000428201250
 49       0.0000000101787651
 50       0.0000001828393185
 51      -0.0000002566076585
 52       0.0000000422960029
 53       0.1702954033155655
 54      -0.0000035259191751
 55       0.0000000573097054
 56       0.2042070439199088
 57      -0.0000042294969417
 58      -0.0000000225792071
 59       0.1376183351929305
 60      -0.0000028612676043
 61       0.0000000677674415
 62       0.0173387633506369
 63      -0.0000003636906331
 64       0.0000000130479709
 65       0.0000001498164599
 66       0.0000001679326675
 67       0.0000000167287924
 68      -0.0073604435945617
 69      -0.0000000002898144
 70       0.0000004226301012
 71       0.0000004649164995
 72      -0.0000000233182950
 73      -0.0203478750314454
 74       0.0000000174256795
 75       0.0000002516235641
 76       0.0000002888928880
 77       0.0000000064990490
 78      -0.0120408343319819
 79       0.0000000223930368
 80      -0.0000000000876277
 81      -0.0004519889526484
 82      -0.0000000982071463
 83      -0.0000001406467282
 84       0.0000000008366196
 85      -0.0044656205630117
 86      -0.0000000132820722
 87       0.0000000007029618
 88       0.0002530161304312
 89      -0.0000000812883865
 90      -0.0000000762485945
 91      -0.0000000095809699
 92      -0.0029578267165761
 93       0.1154889171160769
 94       0.1325734307049860
 95       0.0094151641754644
 96       0.0043979483633557
 97       0.0076578152658081
 98      -0.0067768530428833
 99      -0.0000000338750297
100       0.0074789581268082
101       0.0100703447447785
102      -0.0000003985606338
103       0.0050668287053637
104       0.0101690681845931
105      -0.0000003054019888
106      -0.0011268694815974
107      -0.0000000200673169
108       0.0000000658159983
109       0.0015273184855005
110      -0.0030079277509778
111       0.0014842504369661
112      -0.0000000331851851
113       0.0000000665460302
114       0.0025048931991882
115       0.0017460657960781
116      -0.1154889021024359
117      -0.1325718080009994
118      -0.0094124870576533
119      -0.0043978189250706
120      -0.0076578000676233
121      -0.0067768322204589
122       0.0000003102683504
123      -0.0074785954432391
124       0.0100705907434293
125       0.0000000107610159
126      -0.0050661813914839
127       0.0101693691242921
128      -0.0000000740955163
129       0.0011268683653117
130       0.0000001448413355
131       0.0000000778638892
132      -0.0015273121408083
133      -0.0030079126524397
134      -0.0014841552437318
135      -0.0000000387729723
136      -0.0000001196416294
137      -0.0025047894855206
138       0.0017461034982265
 Sym=     1a
 Ene= -4.75233018419081E-01
 Spin= Alpha
 Occup= 2.000000
  1       0.0016134475698120
  2      -0.0683056653100629
  3      -0.0208114586726100
  4       0.0457798894804576
  5      -0.0053693214979277
  6      -0.2051931110433814
  7       0.0000001028772930
  8       0.0000045303673301
  9      -0.2168047897607226
 10      -0.0000022720166705
 11       0.0000050890441396
 12      -0.0710883696390720
 13       0.0000004186370727
 14       0.0000019627326100
 15      -0.0026648654910832
 16       0.0000000989220102
 17       0.0000001131058572
 18       0.0036711569316169
 19       0.0000005534782289
 20      -0.0000001420473151
 21      -0.0131352108247887
 22       0.0000001607993172
 23       0.0007961063297165
 24       0.0000002178023168
 25      -0.0000000743852749
 26      -0.0049080971703873
 27       0.0000007336908745
 28      -0.0028708290737068
 29      -0.0000000650056739
 30      -0.0000001711580858
 31      -0.0027108180637477
 32       0.0000001478923002
 33      -0.0000001343236108
 34       0.0027033770169473
 35       0.0000001087035198
 36       0.0000003205176326
 37      -0.0000000608084394
 38       0.0062792005108765
 39      -0.0000000300360466
 40       0.0000000947496275
 41      -0.0023596939014102
 42      -0.0000000014026995
 43      -0.0000003771800886
 44       0.0000001629358666
 45      -0.0104149609640724
 46      -0.0000006644227934
 47      -0.0003339281660256
 48       0.1958825707860073
 49       0.0584596187102262
 50       0.2534740150834680
 51       0.0823402061114017
 52       0.2983902435978464
 53      -0.0000000731714150
 54      -0.0000067799145106
 55       0.3464308713812292
 56      -0.0000001258235634
 57      -0.0000079167878724
 58       0.1874641568707286
 59      -0.0000009313007547
 60      -0.0000044821730291
 61       0.0066778373386073
 62      -0.0000001951386647
 63      -0.0000001966607126
 64       0.0057921030272195
 65       0.0000004180961735
 66       0.0000000161965636
 67      -0.0091835490908514
 68       0.0000000228453078
 69       0.0117669219792915
 70       0.0000009906115048
 71       0.0000000173949613
 72      -0.0196681135836818
 73      -0.0000000126587317
 74       0.0014997087205718
 75       0.0000002824448364
 76      -0.0000000289179343
 77      -0.0045827273173272
 78       0.0000003173713695
 79       0.0000000846006845
 80      -0.0014584699898502
 81       0.0000000015771801
 82      -0.0000001553096032
 83       0.0000000460091022
 84      -0.0036457387062854
 85       0.0000000066762571
 86       0.0000001577059993
 87      -0.0020216255077172
 88      -0.0000000269472666
 89      -0.0000002491714892
 90       0.0000000310075400
 91      -0.0039511926377242
 92      -0.0000000453956672
 93       0.0532416964576778
 94       0.0738173383779566
 95       0.0106039844671285
 96       0.0008038772392151
 97       0.0006296643455008
 98      -0.0059276436997319
 99       0.0000001313275091
100      -0.0013333647248575
101      -0.0089312303007231
102       0.0000001718942598
103      -0.0052737489849571
104       0.0024256969038676
105      -0.0000000672147712
106      -0.0003441439389732
107       0.0000000790172735
108      -0.0000001207272061
109      -0.0024526124282619
110      -0.0006075130519035
111      -0.0031246244969241
112      -0.0000002308005407
113      -0.0000000195459930
114       0.0022877628015544
115       0.0012596249220307
116       0.0532418644970981
117       0.0738138673441749
118       0.0106032973298584
119       0.0008038530332898
120       0.0006297410040731
121       0.0059275700665170
122      -0.0000001245498149
123      -0.0013355593934419
124       0.0089297642429256
125      -0.0000001655247824
126      -0.0052741626663682
127      -0.0024261526855937
128       0.0000000247240901
129      -0.0003439699670868
130       0.0000000498730449
131      -0.0000000266281127
132      -0.0024526220161087
133       0.0006071537660909
134      -0.0031242825429020
135      -0.0000001807372646
136      -0.0000000763135494
137       0.0022877569984475
138      -0.0012602302342630
 Sym=     1a
 Ene= -4.23452833359144E-01
 Spin= Alpha
 Occup= 2.000000
  1       0.0000000375575814
  2       0.0000000385949226
  3      -0.0000000066504709
  4       0.0000005667949626
  5       0.0000001298726910
  6       0.0000044779824748
  7       0.0000040844913397
  8       0.1981906802291042
  9       0.0000059423057779
 10       0.0000055775184621
 11       0.2486059084174062
 12       0.0000026747540761
 13       0.0000045905188739
 14       0.1168556986656846
 15       0.0000000403245093
 16       0.0000001046425972
 17       0.0018524645920384
 18      -0.0000007094154792
 19       0.0183266317346793
 20       0.0000000012782404
 21       0.0000004353940945
 22       0.0000003753027252
 23      -0.0000011591371047
 24       0.0285736446098381
 25      -0.0000000643980259
 26       0.0000006845580243
 27       0.0000001933695512
 28       0.0000001665916424
 29      -0.0047891324937877
 30      -0.0000000158781716
 31      -0.0000003083990177
 32      -0.0000004501884139
 33      -0.0044966195457334
 34      -0.0000004548160052
 35      -0.0000000647537700
 36       0.0054207419803526
 37       0.0000000140575900