[Molden Format]
[Title]
 Molden file created by orca_2mkl for BaseName=H2CO

[Atoms] AU
C    1   6         -0.8096412803        -2.0238191495         0.0000191172 
O    2   8          1.4568515318        -2.0238191670        -0.0000323995 
H    3   1         -1.9218719901        -0.2520828652         0.0000076364 
H    4   1         -1.9218723778        -3.7955556610         0.0000812350 
[GTO]
  1 0
s   8 1.0 
     8236.0000000000         0.3342267437
     1235.0000000000         0.6230746416
      280.8000000000         1.0531059072
       79.2700000000         1.5831631342
       25.5900000000         1.9450988312
        8.9970000000         1.6429469100
        3.3190000000         0.6196591261
        0.3643000000        -0.0030667276
s   8 1.0 
     8236.0000000000        -0.1210101098
     1235.0000000000        -0.2265691066
      280.8000000000        -0.3857532897
       79.2700000000        -0.5967016836
       25.5900000000        -0.7858351262
        8.9970000000        -0.8165330321
        3.3190000000        -0.5188700868
        0.3643000000         0.3477346660
s   1 1.0 
        0.9059000000         0.6617901318
s   1 1.0 
        0.1285000000         0.1529633682
p   3 1.0 
       18.7100000000         2.1868515589
        4.1330000000         2.0503123413
        1.2000000000         1.4599445297
p   1 1.0 
        0.3827000000         0.4290551959
p   1 1.0 
        0.1209000000         0.1016185431
d   1 1.0 
        1.0970000000         3.3522135855
d   1 1.0 
        0.3180000000         0.3838994974
f   1 1.0 
        0.7610000000         3.0840084332

  2 0
s   8 1.0 
    15330.0000000000         0.5107820689
     2299.0000000000         0.9520320559
      522.4000000000         1.6143309227
      147.3000000000         2.4433650471
       47.5500000000         3.0486061870
       16.7600000000         2.6183461361
        6.2070000000         1.0052339944
        0.6882000000        -0.0044964733
s   8 1.0 
    15330.0000000000        -0.1936657939
     2299.0000000000        -0.3632249960
      522.4000000000        -0.6192189910
      147.3000000000        -0.9677187516
       47.5500000000        -1.2940243602
       16.7600000000        -1.3817163263
        6.2070000000        -0.8447542687
        0.6882000000         0.5573175589
s   1 1.0 
        1.7520000000         1.0853271534
s   1 1.0 
        0.2384000000         0.2431586819
p   3 1.0 
       34.4600000000         4.8988750613
        7.7490000000         4.7502609215
        2.2800000000         3.2044979545
p   1 1.0 
        0.7156000000         0.9381623559
p   1 1.0 
        0.2140000000         0.2074709543
d   1 1.0 
        2.3140000000        12.3767310624
d   1 1.0 
        0.6450000000         1.3234257612
f   1 1.0 
        1.4280000000        12.7097950062

  3 0
s   3 1.0 
       33.8700000000         0.2551080577
        5.0950000000         0.4600978881
        1.1590000000         0.6784140671
s   1 1.0 
        0.3258000000         0.3073430538
s   1 1.0 
        0.1027000000         0.1292968442
p   1 1.0 
        1.4070000000         2.1842769845
p   1 1.0 
        0.3880000000         0.4364954740
d   1 1.0 
        1.0570000000         3.1412413909

  4 0
s   3 1.0 
       33.8700000000         0.2551080577
        5.0950000000         0.4600978881
        1.1590000000         0.6784140671
s   1 1.0 
        0.3258000000         0.3073430538
s   1 1.0 
        0.1027000000         0.1292968442
p   1 1.0 
        1.4070000000         2.1842769845
p   1 1.0 
        0.3880000000         0.4364954740
d   1 1.0 
        1.0570000000         3.1412413909

[5D]
[7F]
[9G]
[MO]
 Sym=     1a
 Ene= -1.91468289021711E+01
 Spin= Alpha
 Occup= 2.000000
  1      -0.0000487622465416
  2       0.0000683657098341
  3       0.0005156725531926
  4      -0.0008627117690615
  5       0.0004420246891093
  6       0.0000000000024152
  7      -0.0000000069273614
  8       0.0000625020688694
  9      -0.0000000002044744
 10      -0.0000000119723079
 11      -0.0007524003510827
 12      -0.0000000003385559
 13       0.0000000214467960
 14      -0.0000325960855529
 15      -0.0000000037347582
 16       0.0000000006255379
 17       0.0001273268286025
 18       0.0000000000017956
 19       0.0001923310947200
 20       0.0000000131944273
 21       0.0000000084778463
 22      -0.0002846522054031
 23       0.0000000004407762
 24      -0.0000000114596851
 25       0.0002578337448038
 26       0.0000000000098599
 27       0.0000000266161327
 28      -0.0000000085270803
 29       0.0006027404865151
 30       0.0000000000729770
 31       0.9707809079674906
 32      -0.0037057753196790
 33       0.0513633948065012
 34       0.0036979716791619
 35      -0.0015932333865429
 36       0.0000000002040576
 37       0.0000000361567393
 38       0.0006472505370168
 39      -0.0000000002413418
 40      -0.0000000128291849
 41      -0.0003167475858742
 42       0.0000000001218531
 43       0.0000000066681184
 44      -0.0001271171886549
 45      -0.0000000105525739
 46       0.0000000010919334
 47       0.0002585680604750
 48      -0.0000000000133092
 49       0.0001849214774336
 50       0.0000000120091890
 51      -0.0000000011927470
 52      -0.0003294956122010
 53       0.0000000000345483
 54       0.0000000011347333
 55      -0.0000504340766228
 56      -0.0000000000045373
 57      -0.0000000019581724
 58      -0.0000000011055948
 59      -0.0000163115335753
 60      -0.0000000000297405
 61       0.0001933413251572
 62      -0.0000718976308273
 63      -0.0001278212314986
 64       0.0000760239464414
 65      -0.0001211090496168
 66       0.0000000017835686
 67      -0.0001242612019606
 68       0.0001000497642181
 69      -0.0000000024144996
 70       0.0000901750976763
 71       0.0000000054649346
 72       0.0000000024211823
 73      -0.0000510577242571
 74      -0.0000295407950066
 75       0.0001933411885202
 76      -0.0000718983036639
 77      -0.0001278215147806
 78       0.0000760240297799
 79       0.0001211089926812
 80      -0.0000000052142836
 81      -0.0001242611412742
 82      -0.0001000500216527
 83       0.0000000128734639
 84       0.0000901750171267
 85       0.0000000063988559
 86       0.0000000038109923
 87      -0.0000510575599766
 88       0.0000295408200112
 Sym=     1a
 Ene= -1.02726375625506E+01
 Spin= Alpha
 Occup= 2.000000
  1      -0.9793355173879645
  2      -0.0121925837877273
  3      -0.0504554537425088
  4      -0.0146708271435566
  5      -0.0005719865828178
  6      -0.0000000001754401
  7       0.0000000156342469
  8       0.0003029415053214
  9      -0.0000000079303387
 10      -0.0000000157466380
 11       0.0015129918897560
 12      -0.0000000028908783
 13      -0.0000000372134213
 14       0.0022037528289845
 15       0.0000001082052322
 16       0.0000000610149879
 17      -0.0007289639492513
 18       0.0000000009663066
 19       0.0031868749418331
 20       0.0000001189099573
 21       0.0000001320490901
 22       0.0001079518870724
 23       0.0000000026103864
 24      -0.0000000051003527
 25       0.0001167292539945
 26       0.0000000004294613
 27       0.0000000817009704
 28      -0.0000000638768239
 29       0.0025990717981896
 30      -0.0000000001434310
 31       0.0012842973468730
 32       0.0018430469276275
 33      -0.0008337039920383
 34       0.0071158140997165
 35       0.0007244424553148
 36       0.0000000000533660
 37      -0.0000000164981424
 38      -0.0041306337194293
 39      -0.0000000001652204
 40       0.0000000937536550
 41      -0.0025013918981241
 42       0.0000000003135697
 43       0.0000000603238775
 44      -0.0000477167364236
 45      -0.0000000033835504
 46       0.0000000008370878
 47       0.0000879294207009
 48       0.0000000000162086
 49      -0.0012626002472487
 50      -0.0000001014082750
 51      -0.0000000015938081
 52       0.0022386554727108
 53      -0.0000000000651204
 54      -0.0000000181215203
 55       0.0003319991421534
 56       0.0000000000435176
 57       0.0000000284939486
 58      -0.0000000047252054
 59       0.0006327639082237
 60      -0.0000000000064703
 61      -0.0000208586095737
 62       0.0083447705218311
 63       0.0027021639538362
 64       0.0006950323489554
 65      -0.0009803256614467
 66       0.0000000048494396
 67       0.0023388774614484
 68      -0.0039663951587910
 69       0.0000000249551921
 70      -0.0007607758417205
 71       0.0000000145754975
 72      -0.0000000080018128
 73      -0.0006347099745884
 74      -0.0014148084465630
 75      -0.0000208596968037
 76       0.0083447556040725
 77       0.0027021609509227
 78       0.0006950316329124
 79       0.0009803242748970
 80      -0.0000000380749976
 81       0.0023388744297325
 82       0.0039663894935767
 83      -0.0000001214827962
 84      -0.0007607755766297
 85      -0.0000000412956869
 86      -0.0000000693604575
 87      -0.0006347092920848
 88       0.0014148079469423
 Sym=     1a
 Ene= -1.06724435663884E+00
 Spin= Alpha
 Occup= 2.000000
  1       0.0250433803978173
  2      -0.2399008778225607
  3      -0.0609069749488410
  4      -0.0648980600855153
  5      -0.1116781873281613
  6      -0.0000000022590040
  7       0.0000025393037223
  8      -0.0782505488982320
  9      -0.0000000022729284
 10       0.0000017689151391
 11      -0.0060506206067002
 12      -0.0000000013088452
 13       0.0000001475874414
 14       0.0110457755250743
 15       0.0000007654336319
 16       0.0000000956218135
 17      -0.0145551577443819
 18       0.0000000003841048
 19       0.0144197516295537
 20       0.0000007813421694
 21       0.0000003251451400
 22      -0.0093841298659874
 23       0.0000000006920099
 24      -0.0000001015121950
 25       0.0018510267486724
 26      -0.0000000003603757
 27       0.0000003462227234
 28      -0.0000001957491603
 29       0.0100637236830205
 30      -0.0000000002514147
 31       0.0188467482713015
 32      -0.4495627492229402
 33      -0.1288160142553018
 34      -0.2197182219332183
 35       0.0964588868695557
 36      -0.0000000005492485
 37      -0.0000021947638352
 38       0.1100442440590725
 39      -0.0000000045743748
 40      -0.0000025007650759
 41       0.0184040141118771
 42      -0.0000000003611904
 43      -0.0000004222939679
 44       0.0033712297252892
 45       0.0000002974146707
 46      -0.0000000291168938
 47      -0.0072069422584163
 48      -0.0000000005855186
 49       0.0056228338539807
 50       0.0000005617803399
 51      -0.0000001098028606
 52      -0.0150546836694960
 53       0.0000000013336927
 54       0.0000001364769434
 55      -0.0024664409852099
 56       0.0000000000673263
 57      -0.0000001897463112
 58       0.0000000114566001
 59      -0.0036359881533168
 60       0.0000000002347281
 61      -0.0144142851208640
 62       0.0078386510997235
 63       0.0028009323755136
 64      -0.0005937590265273
 65      -0.0005179622270861
 66       0.0000000249303217
 67       0.0033686838965170
 68      -0.0088734085537652
 69       0.0000001050355735
 70      -0.0003544093734234
 71       0.0000000339232982
 72      -0.0000000287356755
 73      -0.0014891978772508
 74      -0.0006698271306621
 75      -0.0144142792404553
 76       0.0078386510233743
 77       0.0028009318965848
 78      -0.0005937572425768
 79       0.0005179624639231
 80       0.0000000022720552
 81       0.0033686866771229
 82       0.0088734087032809
 83      -0.0000002588061698
 84      -0.0003544109945152
 85       0.0000000068328227
 86      -0.0000000584728143
 87      -0.0014891970350679
 88       0.0006698300317320
 Sym=     1a
 Ene= -6.37966778778115E-01
 Spin= Alpha
 Occup= 2.000000
  1      -0.0204609399003850
  2       0.3757849722276442
  3       0.1000684455358107
  4       0.1655979407771105
  5      -0.1216540963693143
  6       0.0000000583803402
  7       0.0000027731079601
  8      -0.1263371727578497
  9       0.0000000653660673
 10       0.0000028723599753
 11      -0.0592797889853663
 12       0.0000000273602350
 13       0.0000013533079658
 14      -0.0051625928891017
 15      -0.0000000246790914
 16      -0.0000003472362542
 17      -0.0076841269666781
 18      -0.0000000023856615
 19      -0.0006324601479539
 20       0.0000001482093345
 21      -0.0000001649211020
 22      -0.0075546412117712
 23      -0.0000000071206628
 24      -0.0000000658401459
 25       0.0011822017963334
 26      -0.0000000002383996
 27      -0.0000000238852457
 28       0.0000001011630018
 29      -0.0025363761833741
 30       0.0000000005447265
 31       0.0028316051138679
 32      -0.2126759104573296
 33      -0.0642529733399308
 34      -0.1761729136593113
 35      -0.0609566652026390
 36       0.0000000068475797
 37       0.0000014101707028
 38      -0.0658132563850658
 39       0.0000000183769632
 40       0.0000015038766686
 41      -0.0431701795161696
 42       0.0000000019120573
 43       0.0000009850375521
 44      -0.0012729046363737
 45      -0.0000000889469099
 46      -0.0000000242764862
 47       0.0012502812802308
 48      -0.0000000027368345
 49      -0.0029503096371064
 50      -0.0000001726248462
 51      -0.0000000471721608
 52       0.0027836099263713
 53      -0.0000000020170928
 54      -0.0000000113064670
 55       0.0002043923508822
 56      -0.0000000001078775
 57       0.0000000198593321
 58      -0.0000000052858377
 59       0.0004734323682259
 60      -0.0000000008231739
 61       0.1121054871071471
 62       0.1376450418607588
 63       0.0251851742635180
 64       0.0044562321110535
 65      -0.0105371223534109
 66       0.0000001176474086
 67       0.0028829708647825
 68      -0.0108406759107000
 69       0.0000001547636485
 70      -0.0012776553360127
 71       0.0000000357212406
 72      -0.0000000416120087
 73      -0.0019788017122173
 74      -0.0019751108689388
 75       0.1121054114537902
 76       0.1376449974819501
 77       0.0251851745554733
 78       0.0044562288958580
 79       0.0105371142788682
 80      -0.0000003216433516
 81       0.0028829794533235
 82       0.0108406867821784
 83      -0.0000002768183197
 84      -0.0012776556678262
 85      -0.0000000443116317
 86      -0.0000001296555052
 87      -0.0019788008306576
 88       0.0019751112627391
 Sym=     1a
 Ene= -4.99988572759678E-01
 Spin= Alpha
 Occup= 2.000000
  1      -0.0000000041523928
  2       0.0000000800362642
  3       0.0000000292465989
  4      -0.0000000431994253
  5       0.0000000241455225
  6      -0.2496600177958408
  7       0.0000051920452590
  8       0.0000000833522408
  9      -0.2733707983383382
 10       0.0000056842676542
 11       0.0000000199005124
 12      -0.1023602661451550
 13       0.0000021310753209
 14      -0.0000000035766801
 15      -0.0000000195831848
 16      -0.0000000229109069
 17       0.0000000059176693
 18       0.0009831433124552
 19       0.0000000355188071
 20       0.0000000157369787
 21       0.0000000156302734
 22       0.0000000515036745
 23      -0.0007494422942587
 24      -0.0000000597801070
 25       0.0000000051803891
 26       0.0011761259343129
 27       0.0000001073908094
 28       0.0000002001275797
 29      -0.0000000012957096
 30       0.0057020821332041
 31       0.0000000000179679
 32      -0.0000000739313117
 33      -0.0000000211263615
 34      -0.0000001408533068
 35      -0.0000000809735701
 36      -0.1678568849770820
 37       0.0000034981211143
 38      -0.0000000729045467
 39      -0.1984947818619119
 40       0.0000041333707580
 41      -0.0000000212447411
 42      -0.1140161086447101
 43       0.0000023757234842
 44       0.0000000770364468
 45      -0.0000001550767175
 46      -0.0000001731253907
 47       0.0000000797510731
 48       0.0074182847134652
 49      -0.0000000438969987
 50      -0.0000003992507788
 51      -0.0000004343797220
 52      -0.0000000501362747
 53       0.0191985328083491
 54      -0.0000000177140850
 55       0.0000000005850656
 56       0.0003471641803938
 57       0.0000001140658963
 58       0.0000001496646905
 59      -0.0000000007570820
 60       0.0049281998410758
 61      -0.1195650384434231
 62      -0.1628653275558142
 63      -0.0593227729898063
 64      -0.0086050274542325
 65       0.0075609127481613
 66       0.0000000388292013
 67      -0.0079457445404768
 68       0.0043862574049405
 69       0.0000000898102432
 70       0.0014534432673519
 71      -0.0000000056835739
 72      -0.0000000494531518
 73      -0.0007158875713213
 74       0.0038189742717758
 75       0.1195650303682127
 76       0.1628655070102493
 77       0.0593228276947966
 78       0.0086050255654003
 79       0.0075609113909643
 80      -0.0000003525113382
 81       0.0079458083485857
 82       0.0043863017188825
 83      -0.0000002710236741
 84      -0.0014534474605885
 85      -0.0000001524655538
 86      -0.0000001242194439
 87       0.0007158913630535
 88       0.0038189798613508
 Sym=     1a
 Ene= -4.56603998684960E-01
 Spin= Alpha
 Occup= 2.000000
  1       0.0051561155877962
  2      -0.0666065409642380
  3      -0.0232011965972116
  4       0.0772509748686679
  5      -0.2088353107142119
  6      -0.0000000399244094
  7       0.0000047664041730
  8      -0.1779007587993678
  9      -0.0000000796304574
 10       0.0000040802581454
 11       0.0019352552736881
 12      -0.0000000360643080
 13      -0.0000000364406325
 14       0.0034059959096352
 15       0.0000004109620362
 16      -0.0000001268692293
 17      -0.0120642788682770
 18       0.0000000007735326
 19      -0.0037562831195542
 20      -0.0000002664521239
 21      -0.0000000309705575
 22       0.0054463374760826
 23       0.0000000160254348
 24      -0.0000000319934971
 25       0.0005294983967962
 26       0.0000000018171501
 27       0.0000001594790859
 28      -0.0000001082596051
 29       0.0049775536522130
 30       0.0000000031781239
 31      -0.0017024448958811
 32       0.1988107901878378
 33       0.0620540134104341
 34       0.2011023377722989
 35       0.3030408857995897
 36      -0.0000000466036303
 37      -0.0000068477357364
 38       0.3469640309624895
 39      -0.0000000519791267
 40      -0.0000078520038257
 41       0.2420178835770239
 42      -0.0000000351159534
 43      -0.0000054746587717
 44       0.0055181925054810
 45       0.0000004180613675
 46       0.0000000049791191
 47      -0.0091226437767766
 48       0.0000000008559751
 49       0.0161139708072344
 50       0.0000012069277431
 51       0.0000000625416618
 52      -0.0250321626674474
 53       0.0000000058600763
 54       0.0000001386275285
 55      -0.0024801680875766
 56      -0.0000000001374062
 57      -0.0000002275000987
 58       0.0000000447734366
 59      -0.0049667067174250
 60       0.0000000007772379
 61       0.0533739753130595
 62       0.0839169793943480
 63       0.0446913730561878
 64       0.0015882810320110
 65      -0.0057485003390585
 66       0.0000000832374838
 67      -0.0034899672669516
 68      -0.0150204749640043
 69       0.0000003955520562
 70      -0.0005711752209158
 71       0.0000000693946280
 72      -0.0000000629446052
 73      -0.0031193332815715
 74      -0.0009902740766194
 75       0.0533740142768463
 76       0.0839169797258420
 77       0.0446913883485224
 78       0.0015882861004240
 79       0.0057484996788128
 80      -0.0000001545296252
 81      -0.0034899730755336
 82       0.0150204507537989
 83      -0.0000002393528063
 84      -0.0005711758888216
 85       0.0000000270730028
 86      -0.0000001088968345
 87      -0.0031193289055823
 88       0.0009902761749063
 Sym=     1a
 Ene= -4.06743176674824E-01
 Spin= Alpha
 Occup= 2.000000
  1      -0.0000000022027484
  2       0.0000000060587592
  3       0.0000000062807990
  4      -0.0000000094562624
  5      -0.0000046557758397
  6      -0.0000042401760709
  7      -0.2036963543592312
  8      -0.0000055920814581
  9      -0.0000051062850221
 10      -0.2449276912739115
 11      -0.0000032733130560
 12      -0.0000030023837996
 13      -0.1443586998324947
 14       0.0000007165755615
 15      -0.0182080756557493
 16      -0.0000000001654496
 17      -0.0000004153196634
 18      -0.0000003769535635
 19       0.0000010982261639
 20      -0.0277431786956386
 21      -0.0000000010768178
 22      -0.0000006335243281
 23      -0.0000005685126944
 24       0.0048593398014853
 25       0.0000004999525527
 26       0.0000000370574157
 27      -0.0063914865486749
 28      -0.0000000001971982
 29       0.0000001801264430
 30       0.0000001621782085
 31       0.0000000011304606
 32       0.0000000168125923
 33       0.0000000030736503
 34       0.0000000211070847
 35      -0.0000065446329147
 36      -0.0000060090245498
 37      -0.2894879997688605
 38      -0.0000078195808504
 39      -0.0000071813674491
 40      -0.3455984493637319
 41      -0.0000052239213364
 42      -0.0000047985245341
 43      -0.2309314066737050
 44      -0.0000003628709086
 45       0.0092138729319203
 46      -0.0000000020467325
 47       0.0000002117090746
 48       0.0000001870718942
 49      -0.0000010703547098
 50       0.0272108936212423
 51      -0.0000000002911500
 52       0.0000006142616606
 53       0.0000005697134787
 54       0.0022458491537554
 55       0.0000003134693332
 56      -0.0000000577484616
 57      -0.0052409765206992
 58      -0.0000000000328520
 59       0.0000001453161021
 60       0.0000001336858489
 61       0.0000000036800022
 62       0.0000000242468148
 63       0.0000000104137662
 64      -0.0000000935801076
 65      -0.0000000868488998
 66      -0.0041417956972817
 67      -0.0000002117462555
 68      -0.0000002035377018
 69      -0.0093621116128839
 70      -0.0000000072284114
 71      -0.0013791802109853
 72       0.0016995547590876
 73      -0.0000000675841025
 74       0.0000000095020652
 75       0.0000000138371842
 76       0.0000000196931856
 77       0.0000000182372066
 78      -0.0000000934660900
 79      -0.0000000843815593
 80      -0.0041417931188318
 81      -0.0000002113668022
 82      -0.0000001955585044
 83      -0.0093621112523986
 84       0.0000001149950291
 85      -0.0013791796001837
 86      -0.0016995541967932
 87       0.0000000038584810
 88      -0.0000000671448567
 Sym=     1a
 Ene= -2.73789766844186E-01
 Spin= Alpha
 Occup= 2.000000
  1      -0.0000000063378784
  2      -0.0000000123071305
  3      -0.0000000084488773
  4       0.0000000062605593
  5       0.0000000010816714
  6       0.0851412770144096
  7      -0.0000017673383410
  8      -0.0000000229616137
  9       0.0614618264651875
 10      -0.0000012775121937
 11      -0.0000000054344928
 12      -0.0589547815222151
 13       0.0000012322067435
 14       0.0000000019889026
 15       0.0000006719124267
 16       0.0000007364542963
 17      -0.0000000043810917
 18      -0.0323886204648028
 19      -0.0000000187905110
 20       0.0000002277634069
 21       0.0000002486248394
 22      -0.0000000322221800
 23      -0.0109924520671225
 24      -0.0000001954302327
 25      -0.0000000052527386
 26       0.0038538983948390
 27       0.0000000740840537
 28       0.0000003597618067
 29      -0.0000000005780610
 30       0.0079184215447410
 31      -0.0000000006330606
 32      -0.0000000013678533
 33      -0.0000000017333597
 34       0.0000000356386794
 35       0.0000000025917259
 36      -0.3313911508556092
 37       0.0000068726036908
 38      -0.0000000059532437
 39      -0.3904893987825611
 40       0.0000081027827734
 41      -0.0000000226001832
 42      -0.3346707528528037
 43       0.0000069417779740
 44      -0.0000000603193824
 45      -0.0000000741171444
 46      -0.0000000749005324
 47      -0.0000000601204624
 48       0.0036113253254049
 49       0.0000000319345112
 50      -0.0000003035853837
 51      -0.0000003357879407
 52       0.0000000424984634
 53       0.0145818456081422
 54       0.0000000510109788
 55      -0.0000000000029671
 56      -0.0010057674257870
 57       0.0000001049624893
 58       0.0000000426382024
 59       0.0000000014689436
 60       0.0028242093145199
 61       0.1050985531920714
 62       0.2411558075169679
 63       0.2004429142253263
 64       0.0028827693505634
 65      -0.0056369247369002
 66       0.0000000517437144
 67       0.0101639382945226
 68      -0.0216726895389461
 69       0.0000002187726631
 70      -0.0004400680292418
 71       0.0000000854467439
 72      -0.0000000167760661
 73      -0.0024776593982043
 74      -0.0022374470429572
 75      -0.1050985675459636
 76      -0.2411559003038100
 77      -0.2004429623638718
 78      -0.0028827691553543
 79      -0.0056369254319445
 80       0.0000001823129877
 81      -0.0101639813531745
 82      -0.0216727070682044
 83       0.0000006839693349
 84       0.0004400705782148
 85       0.0000000075024828
 86       0.0000001183222541
 87       0.0024776555451583
 88      -0.0022374525751313
 Sym=     1a
 Ene= -5.15655248117135E-02
 Spin= Alpha
 Occup= 0.000000
  1      -0.0000000004621482
  2       0.0000000029974465
  3       0.0000000037308607
  4       0.0000000284918749
  5      -0.0000060840652173
  6      -0.0000055575339841
  7      -0.2676358924850502
  8      -0.0000079887725468
  9      -0.0000072996625584
 10      -0.3514588167211022
 11      -0.0000118462532078
 12      -0.0000108240493788
 13      -0.5204699286608959
 14      -0.0000006816612823
 15       0.0173031486060993
 16      -0.0000000006588524
 17       0.0000003945385528
 18       0.0000003593818215
 19      -0.0000013181542003
 20       0.0334404239857032
 21      -0.0000000013966017
 22       0.0000007588482275
 23       0.0000006974106104
 24      -0.0020329535452046
 25      -0.0000001679317969
 26      -0.0000000536085274
 27       0.0015098490189504
 28      -0.0000000000367286
 29      -0.0000000422464647
 30      -0.0000000393802238
 31      -0.0000000003328713
 32      -0.0000000004079986
 33       0.0000000016112452
 34       0.0000000003281660
 35       0.0000057384725076
 36       0.0000052401102452
 37       0.2524409667211179
 38       0.0000064423303746
 39       0.0000058816818586
 40       0.2834972558692299
 41       0.0000094822701439
 42       0.0000086566038851
 43       0.4170485167481593
 44      -0.0000001456855021
 45       0.0037228507188998
 46       0.0000000007803849
 47       0.0000000863510207
 48       0.0000000753500348
 49      -0.0000001234080421
 50       0.0031531053621051
 51       0.0000000003574747
 52       0.0000000700376777
 53       0.0000000673878343
 54       0.0014898100946543
 55       0.0000000869457760
 56       0.0000000717762501
 57      -0.0001213176584932
 58       0.0000000000743461
 59       0.0000000032466666
 60       0.0000000033547045
 61      -0.0000000028192774
 62      -0.0000000002222600
 63      -0.0000000031598962
 64      -0.0000001855308725
 65      -0.0000001692019533
 66      -0.0081502044496075
 67      -0.0000007967386937
 68      -0.0000007303730774
 69      -0.0350836667093155
 70      -0.0000000887299373
 71      -0.0014919324856324
 72       0.0040987795123158
 73      -0.0000001191255639
 74       0.0000000620960585
 75      -0.0000000056018514
 76      -0.0000000164649252
 77      -0.0000000313540815
 78      -0.0000001856858425
 79      -0.0000001696095353
 80      -0.0081502004294206
 81      -0.0000008017923669
 82      -0.0000007271658065
 83      -0.0350836646233384
 84       0.0000002060444549
 85      -0.0014919327891658
 86      -0.0040987783137349
 87       0.0000000508196327
 88      -0.0000001246430321
 Sym=     1a
 Ene= 4.66936279715341E-02
 Spin= Alpha
 Occup= 0.000000
  1       0.0093785863283526
  2       0.2694356452686544
  3       0.0722924142985365
  4       2.3582606199370439
  5      -0.1141983160386823
  6      -0.0000000907884047
  7       0.0000026027702789
  8      -0.2016373010132035
  9      -0.0000001804591540
 10       0.0000045898985788
 11      -0.5707318582009500
 12      -0.0000005804407714
 13       0.0000130068266096
 14       0.0069021552140487
 15       0.0000002662995890
 16       0.0000002532350110
 17       0.0002851460772957
 18       0.0000000046063897
 19      -0.0744640746900534
 20      -0.0000025915716983
 21      -0.0000029874467995
 22      -0.0153485768272685
 23       0.0000000473384205
 24      -0.0000002060622396
 25       0.0036965287824146
 26       0.0000000061857881
 27      -0.0000001029644300
 28       0.0000003372378852
 29      -0.0085063825506788
 30      -0.0000000006536048
 31       0.0013061279750203
 32       0.0057356019825376
 33       0.0018927520944753
 34      -0.0804639720856491
 35       0.0401388664784952
 36       0.0000000527586632
 37      -0.0000009148126657
 38       0.0503398567061894
 39       0.0000000391410135
 40      -0.0000011469071160
 41       0.1264447467267157
 42       0.0000001792257917
 43      -0.0000028841754867
 44       0.0000520763484297
 45      -0.0000000018964175
 46       0.0000000063468929
 47       0.0000985844830197
 48       0.0000000017988212
 49       0.0063283963636928
 50       0.0000001337176954
 51       0.0000003314794883
 52       0.0050941573862454
 53       0.0000000000833253
 54       0.0000000309042962
 55      -0.0005543959868940
 56       0.0000000001857767
 57      -0.0000000054393872
 58      -0.0000000314937451
 59       0.0005255601094350
 60       0.0000000002547923
 61      -0.0291734834412694
 62      -0.1946637154350669
 63      -1.5235378128233157
 64       0.0056861244497342
 65      -0.0182997899202127
 66       0.0000002507810235
 67      -0.0422316884397141
 68       0.0862018296453108
 69      -0.0000008315723751
 70       0.0041056755342320
 71       0.0000000718198473
 72       0.0000000987611386
 73       0.0010743047707720
 74       0.0031519390817226
 75      -0.0291735019864030
 76      -0.1946638015608313
 77      -1.5235391186254927
 78       0.0056861439044821
 79       0.0182998005647691
 80      -0.0000005099633891
 81      -0.0422317904355701
 82      -0.0862019257282383
 83       0.0000027587738429
 84       0.0041056807957239
 85       0.0000002037502312
 86       0.0000002427931823
 87       0.0010743077642082
 88      -0.0031519496063205
 Sym=     1a
 Ene= 1.06376566403385E-01
 Spin= Alpha
 Occup= 0.000000
  1      -0.0000000173107954