
                                 *****************
                                 * O   R   C   A *
                                 *****************

                                            #,                                       
                                            ###                                      
                                            ####                                     
                                            #####                                    
                                            ######                                   
                                           ########,                                 
                                     ,,################,,,,,                         
                               ,,#################################,,                 
                          ,,##########################################,,             
                       ,#########################################, ''#####,          
                    ,#############################################,,   '####,        
                  ,##################################################,,,,####,       
                ,###########''''           ''''###############################       
              ,#####''   ,,,,##########,,,,          '''####'''          '####       
            ,##' ,,,,###########################,,,                        '##       
           ' ,,###''''                  '''############,,,                           
         ,,##''                                '''############,,,,        ,,,,,,###''
      ,#''                                            '''#######################'''  
     '                                                          ''''####''''         
             ,#######,   #######,   ,#######,      ##                                
            ,#'     '#,  ##    ##  ,#'     '#,    #''#        ,####,   ,####,        
            ##       ##  ##   ,#'  ##            #'  '#       #'       #'  '#        
            ##       ##  #######   ##           ,######,      #####,   #    #        
            '#,     ,#'  ##    ##  '#,     ,#' ,#      #,     #,   #   #,  ,#        
             '#######'   ##     ##  '#######'  #'      '#     '####' # '####'        



                #########################################################
                #                        -***-                          #
                #          Department of theory and spectroscopy        #
                #                                                       #
                #                      Frank Neese                      #
                #                                                       #
                #     Directorship, Architecture, Infrastructure        #
                #                    SHARK, DRIVERS                     #
                #        Core code/Algorithms in most modules           #
                #                                                       #
                #        Max Planck Institute fuer Kohlenforschung      #
                #                Kaiser Wilhelm Platz 1                 #
                #                 D-45470 Muelheim/Ruhr                 #
                #                      Germany                          #
                #                                                       #
                #                  All rights reserved                  #
                #                        -***-                          #
                #########################################################


                         Program Version 6.0.1  -  RELEASE   -


 With contributions from (in alphabetic order):
[Max-Planck-Institut fuer Kohlenforschung]                               
  Daniel Aravena         : Magnetic Suceptibility                        
  Michael Atanasov       : Ab Initio Ligand Field Theory (pilot matlab implementation)
  Alexander A. Auer      : GIAO ZORA, VPT2 properties, NMR spectrum      
  Ute Becker             : All parallelization in ORCA, NUMFREQ, NUMCALC 
  Giovanni Bistoni       : ED, misc. LED, open-shell LED, HFLD           
  Martin Brehm           : Molecular dynamics                            
  Dmytro Bykov           : pre 5.0 version of the SCF Hessian            
  Marcos Casanova-Páez   : Triplet and SCS-CIS(D). UHF-(DLPNO)-IP/EA/STEOM-CCSD. UHF-CVS-IP/STEOM-CCSD   
  Vijay G. Chilkuri      : MRCI spin determinant printing, contributions to CSF-ICE 
  Pauline Colinet        : FMM embedding                                 
  Dipayan Datta          : RHF DLPNO-CCSD density                        
  Achintya Kumar Dutta   : EOM-CC, STEOM-CC                              
  Nicolas Foglia         : Exact transition moments, OPA infrastructure, MCD improvements    
  Dmitry Ganyushin       : Spin-Orbit,Spin-Spin,Magnetic field MRCI      
  Miquel Garcia-Rates    : C-PCM and meta-GGA Hessian, CCSD/C-PCM, Gaussian charge scheme 
  Tiago L. C. Gouveia    : GS-ROHF, GS-ROCIS                             
  Yang Guo               : DLPNO-NEVPT2, F12-NEVPT2, CIM, IAO-localization        
  Andreas Hansen         : Spin unrestricted coupled pair/coupled cluster methods 
  Ingolf Harden          : AUTO-CI MPn and infrastructure                
  Benjamin Helmich-Paris : MC-RPA, TRAH-(SCF,CASSCF), AVAS, COSX integrals, SCF dyn. polar. 
  Lee Huntington         : MR-EOM, pCC                                   
  Robert Izsak           : Overlap fitted RIJCOSX, COSX-SCS-MP3, EOM     
  Riya Kayal             : Wick's Theorem for AUTO-CI, AUTO-CI UHF-CCSDT 
  Emily Kempfer          : AUTO-CI, RHF CISDT and CCSDT                  
  Christian Kollmar      : KDIIS, OOCD, Brueckner-CCSD(T), CCSD density, CASPT2, CASPT2-K, improved NEVPT2 
  Axel Koslowski         : Symmetry handling                             
  Simone Kossmann        : meta-GGA functionals, TD-DFT gradient, OOMP2, (MP2 Hessian; deprecated post 5.0) 
  Lucas Lang             : DCDCAS                                        
  Marvin Lechner         : AUTO-CI (C++ implementation), FIC-MRCC        
  Spencer Leger          : CASSCF response                               
  Dagmar Lenk            : GEPOL surface, SMD, ORCA-2-JSON               
  Dimitrios Liakos       : Extrapolation schemes; Compound Job, initial MDCI parallelization 
  Dimitrios Manganas     : Further ROCIS development; embedding schemes. LFT, Crystal Embedding 
  Dimitrios Pantazis     : SARC Basis sets                               
  Anastasios Papadopoulos: AUTO-CI, single reference methods and gradients 
  Taras Petrenko         : pre 6.0 DFT Hessian and TD-DFT gradient, (ASA, deprecated), ECA, 1-Electron XAS/XES, NRVS 
  Peter Pinski           : DLPNO-MP2, DLPNO-MP2 Gradient                 
  Christoph Reimann      : Effective Core Potentials                     
  Marius Retegan         : Local ZFS, SOC                                
  Christoph Riplinger    : Optimizer, TS searches, QM/MM, DLPNO-CCSD(T), (RO)-DLPNO pert. Triples 
  Michael Roemelt        : Original ROCIS implementation                 
  Masaaki Saitow         : Open-shell DLPNO-CCSD energy and density      
  Barbara Sandhoefer     : DKH picture change effects                    
  Kantharuban Sivalingam : CASSCF convergence/infrastructure, NEVPT2 and variants, FIC-MRCI 
  Bernardo de Souza      : ESD, SOC TD-DFT                               
  Georgi L. Stoychev     : AutoAux, RI-MP2 NMR, DLPNO-MP2 response, X2C  
  Van Anh Tran           : RI-MP2 g-tensors                              
  Willem Van den Heuvel  : Paramagnetic NMR                              
  Zikuan Wang            : NOTCH, Electric field optimization            
  Frank Wennmohs         : Technical directorship and infrastructure     
  Hang Xu                : AUTO-CI-Response properties                   
                                                                         
[FACCTs GmbH]                                                            
  Markus Bursch, Miquel Garcia-Rates, Christoph Riplinger, Bernardo de Souza, Georgi L. Stoychev 
                                                                 
  APM, Basis sets (HGBS, AHGBS, def-TZVP (Ac-Lr), def2-XVPD (La-Lu)), CI-OPT, improved COSX, DLPNO-Multilevel,           
  DOCKER, DRACO, updates on ESD, GOAT, IRC, LR-CPCM, MBIS, meta-GGA TD-DFT gradient, ML-optimized integration grids, 
  MM, NACMEs, nearIR, NEB, NEB-TS, NL-DFT gradient (VV10), 2- and 3-layer-ONIOM, interface openCOSMO-RS, QMMM,   
  Crystal-QMMM, SF, symmetry and pop. for TD-DFT, r2SCAN hybrids, SOLVATOR                                   
                                                                         
[Other institutions]                                                     
  V. Asgeirsson          : NEB                                           
  Christoph Bannwarth    : sTDA-DFT, sTD-DFT, PBEh-3c, B97-3c, D3        
  Sebastian Ehlert       : rSCAN, r2SCAN, r2SCAN-3c, D4, dhf basis sets  
  Marvin Friede          : D4 for Fr, Ra, Ac-Lr                          
  Lars Goerigk           : TD-DFT with DH, B97 family of functionals     
  Stefan Grimme          : VdW corrections, initial TS optimization, DFT functionals, gCP, sTDA/sTD-DF 
  Waldemar Hujo          : DFT-NL                                        
  H. Jonsson             : NEB                                           
  Holger Kruse           : gCP                                           
  Marcel Mueller         : wB97X-3c, vDZP basis set                      
  Hagen Neugebauer       : wr2SCAN                                       
  Tobias Risthaus        : range-separated hybrid DFT                    
  Lukas Wittmann         : regularized MP2, r2SCAN double-hybrids, wr2SCAN        
                                                                         
We gratefully acknowledge several colleagues who have allowed us to      
interface, adapt or use parts of their codes:                            
  Ed Valeev, F. Pavosevic, A. Kumar             : LibInt (2-el integral package), F12 methods 
  Garnet Chan, S. Sharma, J. Yang, R. Olivares  : DMRG                   
  Ulf Ekstrom                                   : XCFun DFT Library      
  Mihaly Kallay                                 : mrcc  (arbitrary order and MRCC methods)
  Frank Weinhold                                : gennbo (NPA and NBO analysis)           
  Simon Mueller                                 : openCOSMO-RS                            
  Christopher J. Cramer and Donald G. Truhlar   : smd solvation model                     
  S Lehtola, MJT Oliveira, MAL Marques          : LibXC Library                           
  Liviu Ungur et al                             : ANISO software                          


 Your calculation uses the libint2 library for the computation of 2-el integrals
 For citations please refer to: http://libint.valeyev.net

 Your ORCA version has been built with support for libXC version: 6.2.2
 For citations please refer to: https://libxc.gitlab.io

 This ORCA versions uses:
   CBLAS   interface :  Fast vector & matrix operations
   LAPACKE interface :  Fast linear algebra routines
   SCALAPACK package :  Parallel linear algebra routines
   Shared memory     :  Shared parallel matrices
   BLAS/LAPACK       :  OpenBLAS 0.3.27  USE64BITINT DYNAMIC_ARCH NO_AFFINITY Haswell SINGLE_THREADED
        Core in use  :  Haswell
   Copyright (c) 2011-2014, The OpenBLAS Project




***************************************
The coordinates will be read from file: H2CO.xyz
***************************************


Warning: RI is on but no J-basis has been assigned. Assigning Def2/J (nothing to worry about!)
================================================================================

----- Orbital basis set information -----
Your calculation utilizes the basis: aug-cc-pVTZ 
    H, B-Ne : Obtained from the ccRepo (grant-hill.group.shef.ac.uk/ccrepo) Feb. 2017
              R. A. Kendall, T. H. Dunning, Jr., R. J. Harrison, J. Chem. Phys. 96, 6796 (1992)
         He : Obtained from the ccRepo (grant-hill.group.shef.ac.uk/ccrepo) Feb. 2017
              D. E. Woon, T. H. Dunning, Jr., J. Chem. Phys. 100, 2975 (1994)
  Li-Be, Na : Obtained from the ccRepo (grant-hill.group.shef.ac.uk/ccrepo) Feb. 2017
              B. P. Prascher, D. E. Woon, K. A. Peterson, T. H. Dunning, Jr., A. K. Wilson, Theor. Chem. Acc. 128, 69 (2011)
         Mg : Obtained from the Peterson Research Group Website (tyr0.chem.wsu.edu/~kipeters) Feb. 2017
              B. P. Prascher, D. E. Woon, K. A. Peterson, T. H. Dunning, Jr., A. K. Wilson, Theor. Chem. Acc. 128, 69 (2011)
      Al-Ar : Obtained from the ccRepo (grant-hill.group.shef.ac.uk/ccrepo) Feb. 2017
              D. E. Woon, T. H. Dunning, Jr., J. Chem. Phys. 98, 1358 (1993)
      Sc-Zn : Obtained from the ccRepo (grant-hill.group.shef.ac.uk/ccrepo) Feb. 2017
              N. B. Balabanov, K. A. Peterson, J. Chem. Phys. 123, 064107 (2005)
              N. B. Balabanov, K. A. Peterson, J. Chem. Phys. 125, 074110 (2006)
      Ga-Kr : Obtained from the ccRepo (grant-hill.group.shef.ac.uk/ccrepo) Feb. 2017
              A. K. Wilson, D. E. Woon, K. A. Peterson, T. H. Dunning, Jr., J. Chem. Phys. 110, 7667 (1999)
     Ag, Au : Obtained from the Peterson Research Group Website (tyr0.chem.wsu.edu/~kipeters) Feb. 2017
              K. A. Peterson, C. Puzzarini, Theor. Chem. Acc. 114, 283 (2005)

----- AuxJ basis set information -----
Your calculation utilizes the auxiliary basis: def2/J
   F. Weigend, Phys. Chem. Chem. Phys. 8, 1057 (2006).

================================================================================
                                        WARNINGS
                       Please study these warnings very carefully!
================================================================================

WARNING: Old DensityContainer found on disk!
         Will remove this file - 
         If you want to keep old densities, please start your calculation with a different basename. 

INFO   : Checking CIS options ...

WARNING: CIS/ROCIS methods need fully converged wavefunctions
  ===> : Setting SCFConvForced true
         You can overwrite this default with %scf ConvForced false 


================================================================================
                                       INPUT FILE
================================================================================
NAME = H2CO.inp
|  1> !PBE0 aug-cc-PVTZ
|  2> %TDDFT
|  3> NROOTS 100
|  4> TPrint 0.000001
|  5> TDA TRUE
|  6> END
|  7> * xyzfile 0 1 H2CO.xyz
|  8> %scf
|  9> MaxIter 100
| 10> end
| 11> 
| 12>                          ****END OF INPUT****
================================================================================

                       ****************************
                       * Single Point Calculation *
                       ****************************

---------------------------------
CARTESIAN COORDINATES (ANGSTROEM)
---------------------------------
  C     -0.428444   -1.070959    0.000010
  O      0.770933   -1.070959   -0.000017
  H     -1.017011   -0.133397    0.000004
  H     -1.017011   -2.008522    0.000043

----------------------------
CARTESIAN COORDINATES (A.U.)
----------------------------
  NO LB      ZA    FRAG     MASS         X           Y           Z
   0 C     6.0000    0    12.011   -0.809641   -2.023819    0.000019
   1 O     8.0000    0    15.999    1.456852   -2.023819   -0.000032
   2 H     1.0000    0     1.008   -1.921872   -0.252083    0.000008
   3 H     1.0000    0     1.008   -1.921872   -3.795556    0.000081

--------------------------------
INTERNAL COORDINATES (ANGSTROEM)
--------------------------------
 C      0   0   0     0.000000000000     0.00000000     0.00000000
 O      1   0   0     1.199376339212     0.00000000     0.00000000
 H      1   2   0     1.106993517836   122.11908714     0.00000000
 H      1   2   3     1.106993729249   122.11909198   180.00000241

---------------------------
INTERNAL COORDINATES (A.U.)
---------------------------
 C      0   0   0     0.000000000000     0.00000000     0.00000000
 O      1   0   0     2.266492812615     0.00000000     0.00000000
 H      1   2   0     2.091914580737   122.11908714     0.00000000
 H      1   2   3     2.091914980248   122.11909198   180.00000241

---------------------
BASIS SET INFORMATION
---------------------
There are 3 groups of distinct atoms

 Group   1 Type C   : 19s6p3d2f contracted to 5s4p3d2f pattern {88111/3111/111/11}
 Group   2 Type O   : 19s6p3d2f contracted to 5s4p3d2f pattern {88111/3111/111/11}
 Group   3 Type H   : 6s3p2d contracted to 4s3p2d pattern {3111/111/11}

Atom   0C    basis set group =>   1
Atom   1O    basis set group =>   2
Atom   2H    basis set group =>   3
Atom   3H    basis set group =>   3
---------------------------------
AUXILIARY/J BASIS SET INFORMATION
---------------------------------
There are 3 groups of distinct atoms

 Group   1 Type C   : 12s5p4d2f1g contracted to 6s4p3d1f1g pattern {711111/2111/211/2/1}
 Group   2 Type O   : 12s5p4d2f1g contracted to 6s4p3d1f1g pattern {711111/2111/211/2/1}
 Group   3 Type H   : 5s2p1d contracted to 3s1p1d pattern {311/2/1}

Atom   0C    basis set group =>   1
Atom   1O    basis set group =>   2
Atom   2H    basis set group =>   3
Atom   3H    basis set group =>   3

Checking for AutoStart:
The File: H2CO.gbw exists
Trying to determine its content:
     ... Fine, the file contains calculation information
     ... Fine, the calculation information was read
     ... Fine, the file contains a basis set
     ... Fine, the basis set was read
     ... Fine, the file contains a geometry
     ... Fine, the geometry was read
     ... Fine, the file contains a set of orbitals
     ... Fine, the orbitals can be read
     => possible old guess file was deleted
     => GBW file was renamed to GES file
     => GES file is set as startup file
     => Guess is set to MORead
     ... now leaving AutoStart

------------------------------------------------------------------------------
                             ORCA STARTUP CALCULATIONS
                           -- RI-GTO INTEGRALS CHOSEN --
------------------------------------------------------------------------------
------------------------------------------------------------------------------
                   ___                                                        
                  /   \      - P O W E R E D   B Y -                         
                 /     \                                                     
                 |  |  |   _    _      __       _____    __    __             
                 |  |  |  | |  | |    /  \     |  _  \  |  |  /  |          
                  \  \/   | |  | |   /    \    | | | |  |  | /  /          
                 / \  \   | |__| |  /  /\  \   | |_| |  |  |/  /          
                |  |  |   |  __  | /  /__\  \  |    /   |      \           
                |  |  |   | |  | | |   __   |  |    \   |  |\   \          
                \     /   | |  | | |  |  |  |  | |\  \  |  | \   \       
                 \___/    |_|  |_| |__|  |__|  |_| \__\ |__|  \__/        
                                                                              
                      - O R C A' S   B I G   F R I E N D -                    
                                      &                                       
                       - I N T E G R A L  F E E D E R -                       
                                                                              
 v1 FN, 2020, v2 2021, v3 2022-2024                                           
------------------------------------------------------------------------------


----------------------
SHARK INTEGRAL PACKAGE
----------------------

Number of atoms                             ...      4
Number of basis functions                   ...    150
Number of shells                            ...     58
Maximum angular momentum                    ...      3
Integral batch strategy                     ... SHARK/LIBINT Hybrid
RI-J (if used) integral strategy            ... SPLIT-RIJ (Revised 2003 algorithm where possible)
Printlevel                                  ...      1
Contraction scheme used                     ... PARTIAL GENERAL contraction
Prescreening option                         ... SCHWARTZ
   Thresh                                   ... 1.000e-10
   Tcut                                     ... 1.000e-11
   Tpresel                                  ... 1.000e-11 
Coulomb Range Separation                    ... NOT USED
Exchange Range Separation                   ... NOT USED
Multipole approximations                    ... NOT USED
Finite Nucleus Model                        ... NOT USED
CABS basis                                  ... NOT available
Auxiliary Coulomb fitting basis             ... AVAILABLE
   # of basis functions in Aux-J            ...    120
   # of shells in Aux-J                     ...     40
   Maximum angular momentum in Aux-J        ...      4
Auxiliary J/K fitting basis                 ... NOT available
Auxiliary Correlation fitting basis         ... NOT available
Auxiliary 'external' fitting basis          ... NOT available

Checking pre-screening integrals            ... done (  0.0 sec) Dimension = 58
Save PGC pre-screening integrals            ... done (  0.0 sec) Dimension = 58
Calculate PGC overlap integrals             ... done (  0.0 sec) Dimension = 46
Calculating pre-screening integrals (ORCA)  ... done (  0.0 sec) Dimension = 46
Check shell pair data                       ... done (  0.0 sec)
Shell pair information
Shell pair cut-off parameter TPreSel        ...   1.0e-11
Total number of shell pairs                 ...      1711
Shell pairs after pre-screening             ...      1671
Total number of primitive shell pairs       ...      2223
Primitive shell pairs kept                  ...      2108
          la=0 lb=0:    425 shell pairs
          la=1 lb=0:    420 shell pairs
          la=1 lb=1:    105 shell pairs
          la=2 lb=0:    300 shell pairs
          la=2 lb=1:    140 shell pairs
          la=2 lb=2:     55 shell pairs
          la=3 lb=0:    120 shell pairs
          la=3 lb=1:     56 shell pairs
          la=3 lb=2:     40 shell pairs
          la=3 lb=3:     10 shell pairs

Calculating one electron integrals          ... done (  0.0 sec)
Calculating RI/J V-Matrix + Cholesky decomp.... done (  0.0 sec)
Calculating Nuclear repulsion               ... done (  0.0 sec) ENN=     31.390560213384 Eh

Diagonalization of the overlap matrix:
Smallest eigenvalue                        ... 8.516e-05
Time for diagonalization                   ...    0.001 sec
Threshold for overlap eigenvalues          ... 1.000e-07
Number of eigenvalues below threshold      ... 0
Time for construction of square roots      ...    0.000 sec
Total time needed                          ...    0.001 sec

-------------------
DFT GRID GENERATION
-------------------

General Integration Accuracy     IntAcc      ... 4.388
Radial Grid Type                 RadialGrid  ... OptM3 with GC (2021)
Angular Grid (max. ang.)         AngularGrid ... 4 (Lebedev-302)
Angular grid pruning method      GridPruning ... 4 (adaptive)
Weight generation scheme         WeightScheme... mBecke (2022)
Basis function cutoff            BFCut       ... 1.0000e-10
Integration weight cutoff        WCut        ... 1.0000e-14
Partially contracted basis set               ... off
Rotationally invariant grid construction     ... off
Angular grids for H and He will be reduced by one unit
Diffuse basis detected: some atoms will have their outermost
                        angular grid increased by 1.

Total number of grid points                  ...    19923
Total number of batches                      ...      313
Average number of points per batch           ...       63
Average number of grid points per atom       ...     4981

---------------------
SHARK GRID GENERATION
---------------------

General Integration Accuracy     IntAcc      ... 4.388
Radial Grid Type                 RadialGrid  ... OptM3 with GC (2021)
Angular Grid (max. ang.)         AngularGrid ... 4 (Lebedev-302)
Angular grid pruning method      GridPruning ... 4 (adaptive)
Weight generation scheme         WeightScheme... mBecke (2022)
Basis function cutoff            BFCut       ... 1.0000e-10
Integration weight cutoff        WCut        ... 1.0000e-14
Partially contracted basis set               ... off
Rotationally invariant grid construction     ... off
Angular grids for H and He will be reduced by one unit
Diffuse basis detected: some atoms will have their outermost
                        angular grid increased by 1.
Steep s-basis detected: some atoms will have their radial
                        grid points doubled.

Total number of grid points                  ...    32982
Total number of batches                      ...      517
Average number of points per batch           ...       63
Average number of grid points per atom       ...     8246

--------------------
COSX GRID GENERATION
--------------------

GRIDX 1
-------
General Integration Accuracy     IntAcc      ... 3.816
Radial Grid Type                 RadialGrid  ... OptM3 with GC (2021)
Angular Grid (max. ang.)         AngularGrid ... 1 (Lebedev-50)
Angular grid pruning method      GridPruning ... 4 (adaptive)
Weight generation scheme         WeightScheme... mBecke (2022)
Basis function cutoff            BFCut       ... 1.0000e-10
Integration weight cutoff        WCut        ... 1.0000e-14
Partially contracted basis set               ... on
Rotationally invariant grid construction     ... off
Angular grids for H and He will be reduced by one unit
Diffuse basis detected: some atoms will have their outermost
                        angular grid increased by 1.

Total number of grid points                  ...     2512
Total number of batches                      ...       22
Average number of points per batch           ...      114
Average number of grid points per atom       ...      628
UseSFitting                                  ... on

GRIDX 2
-------
General Integration Accuracy     IntAcc      ... 4.020
Radial Grid Type                 RadialGrid  ... OptM3 with GC (2021)
Angular Grid (max. ang.)         AngularGrid ... 2 (Lebedev-110)
Angular grid pruning method      GridPruning ... 4 (adaptive)
Weight generation scheme         WeightScheme... mBecke (2022)
Basis function cutoff            BFCut       ... 1.0000e-10
Integration weight cutoff        WCut        ... 1.0000e-14
Partially contracted basis set               ... on
Rotationally invariant grid construction     ... off
Angular grids for H and He will be reduced by one unit
Diffuse basis detected: some atoms will have their outermost
                        angular grid increased by 1.

Total number of grid points                  ...     6378
Total number of batches                      ...       52
Average number of points per batch           ...      122
Average number of grid points per atom       ...     1594
UseSFitting                                  ... on

GRIDX 3
-------
General Integration Accuracy     IntAcc      ... 4.338
Radial Grid Type                 RadialGrid  ... OptM3 with GC (2021)
Angular Grid (max. ang.)         AngularGrid ... 3 (Lebedev-194)
Angular grid pruning method      GridPruning ... 4 (adaptive)
Weight generation scheme         WeightScheme... mBecke (2022)
Basis function cutoff            BFCut       ... 1.0000e-10
Integration weight cutoff        WCut        ... 1.0000e-14
Partially contracted basis set               ... on
Rotationally invariant grid construction     ... off
Angular grids for H and He will be reduced by one unit
Diffuse basis detected: some atoms will have their outermost
                        angular grid increased by 1.

Total number of grid points                  ...    14355
Total number of batches                      ...      114
Average number of points per batch           ...      125
Average number of grid points per atom       ...     3589
UseSFitting                                  ... on
Initializing property integral containers    ... done (  0.0 sec)

SHARK setup successfully completed in   0.4 seconds

Maximum memory used throughout the entire STARTUP-calculation: 21.8 MB
-------------------------------------------------------------------------------
                                 ORCA GUESS
                   Start orbitals & Density for SCF / CASSCF
-------------------------------------------------------------------------------

------------
SCF SETTINGS
------------
Hamiltonian:
 Density Functional     Method          .... DFT(GTOs)
 Exchange Functional    Exchange        .... PBE
   PBE kappa parameter   XKappa         ....  0.804000
   PBE mue parameter    XMuePBE         ....  0.219520
 Correlation Functional Correlation     .... PBE
   PBE beta parameter  CBetaPBE         ....  0.066725
 LDA part of GGA corr.  LDAOpt          .... PW91-LDA
 Gradients option       PostSCFGGA      .... off
 Hybrid DFT is turned on
   Fraction HF Exchange ScalHFX         ....  0.250000
   Scaling of DF-GGA-X  ScalDFX         ....  0.750000
   Scaling of DF-GGA-C  ScalDFC         ....  1.000000
   Scaling of DF-LDA-C  ScalLDAC        ....  1.000000
   Perturbative correction              ....  0.000000
   NL short-range parameter             ....  6.900000
 RI-approximation to the Coulomb term is turned on
   Number of AuxJ basis functions       .... 120
   RIJ-COSX (HFX calculated with COS-X)).... on


General Settings:
 Integral files         IntName         .... H2CO
 Hartree-Fock type      HFTyp           .... RHF
 Total Charge           Charge          ....    0
 Multiplicity           Mult            ....    1
 Number of Electrons    NEL             ....   16
 Basis Dimension        Dim             ....  138
 Nuclear Repulsion      ENuc            ....     31.3905602134 Eh

Convergence Acceleration:
 AO-DIIS                CNVDIIS         .... on
   Start iteration      DIISMaxIt       ....    12
   Startup error        DIISStart       ....  0.200000
   # of expansion vecs  DIISMaxEq       ....     5
   Bias factor          DIISBfac        ....   1.050
   Max. coefficient     DIISMaxC        ....  10.000
 MO-DIIS                CNVKDIIS        .... off
 Trust-Rad. Augm. Hess. CNVTRAH         .... auto
   Auto Start mean grad. ratio tolernc. ....  1.125000
   Auto Start start iteration           ....     1
   Auto Start num. interpolation iter.  ....    10
   Max. Number of Micro iterations      ....    24
   Max. Number of Macro iterations      .... Maxiter - #DIIS iter
   Number of Davidson start vectors     ....     2
   Converg. threshold    (grad. norm)   ....   5.000e-05
   Grad. Scal. Fac. for Micro threshold ....   0.100
   Minimum threshold for Micro iter.    ....   1.000e-02
   NR start threshold (gradient norm)   ....   1.000e-04
   Initial trust radius                 ....   0.400
   Minimum AH scaling param. (alpha)    ....   1.000
   Maximum AH scaling param. (alpha)    .... 1000.000
   Quad. conv. algorithm                .... NR
   White noise on init. David. guess    .... on
   Maximum white noise                  ....   0.010
   Pseudo random numbers                .... off
   Inactive MOs                         .... canonical
   Orbital update algorithm             .... Taylor
   Preconditioner                       .... Diag
   Full preconditioner red. dimension   ....   250
 SOSCF                  CNVSOSCF        .... on
   Start iteration      SOSCFMaxIt      ....   150
   Startup grad/error   SOSCFStart      ....  0.003300
   Hessian update       SOSCFHessUp     .... L-BFGS
 Level Shifting         CNVShift        .... on
   Level shift para.    LevelShift      ....    0.2500
   Turn off err/grad.   ShiftErr        ....    0.0010
 Zerner damping         CNVZerner       .... off
 Static damping         CNVDamp         .... on
   Fraction old density DampFac         ....    0.7000
   Max. Damping (<1)    DampMax         ....    0.9800
   Min. Damping (>=0)   DampMin         ....    0.0000
   Turn off err/grad.   DampErr         ....    0.1000

SCF Procedure:
 Maximum # iterations   MaxIter         ....   100
 SCF integral mode      SCFMode         .... Direct
   Integral package                     .... SHARK and LIBINT hybrid scheme
 Reset frequency        DirectResetFreq ....    20
 Integral Threshold     Thresh          ....  1.000e-10 Eh
 Primitive CutOff       TCut            ....  1.000e-11 Eh

Convergence Tolerance:
 Convergence Check Mode ConvCheckMode   .... Total+1el-Energy
 Convergence forced     ConvForced      .... 1
 Energy Change          TolE            ....  1.000e-06 Eh
 1-El. energy change                    ....  1.000e-03 Eh
 Orbital Gradient       TolG            ....  5.000e-05
 Orbital Rotation angle TolX            ....  5.000e-05
 DIIS Error             TolErr          ....  1.000e-06

---------------------
INITIAL GUESS: MOREAD
---------------------
Guess MOs are being read from file: H2CO.ges
Input Geometry matches current geometry (good)
Input basis set matches current basis set (good)
Occupation numbers will be reassigned to an Aufbau configuration
MOs were renormalized
MOs were reorthogonalized (Cholesky)
                      ------------------
                      INITIAL GUESS DONE (   0.0 sec)
                      ------------------
             **** ENERGY FILE WAS UPDATED (H2CO.en.tmp) ****
Finished Guess after   0.0 sec
Maximum memory used throughout the entire GUESS-calculation: 11.2 MB

-------------------------------------------------------------------------------------------
                                      ORCA LEAN-SCF
                              memory conserving SCF solver
-------------------------------------------------------------------------------------------

----------------------------------------D-I-I-S--------------------------------------------
Iteration    Energy (Eh)           Delta-E    RMSDP     MaxDP     DIISErr   Damp  Time(sec)
-------------------------------------------------------------------------------------------
               ***  Starting incremental Fock matrix formation  ***
    1    -114.4151647708109891     0.00e+00  1.79e-04  5.90e-03  2.61e-02  0.700   0.5
    2    -114.4154924660991668    -3.28e-04  1.37e-04  4.17e-03  1.67e-02  0.700   0.3
                               ***Turning on AO-DIIS***
    3    -114.4157202083668352    -2.28e-04  1.01e-04  2.76e-03  1.07e-02  0.700   0.3
    4    -114.4158779857809662    -1.58e-04  2.39e-04  6.67e-03  8.41e-03  0.000   0.3
                              *** Initializing SOSCF ***
---------------------------------------S-O-S-C-F--------------------------------------
Iteration    Energy (Eh)           Delta-E    RMSDP     MaxDP     MaxGrad    Time(sec)
--------------------------------------------------------------------------------------
    5    -114.4162526386198664    -3.75e-04  9.69e-06  2.70e-04  5.67e-04     0.3
               *** Restarting incremental Fock matrix formation ***
    6    -114.4162543942189671    -1.76e-06  7.83e-06  2.04e-04  1.27e-04     0.1
    7    -114.4162540894080138     3.05e-07  4.88e-06  1.56e-04  3.13e-04     0.5
                 **** Energy Check signals convergence ****

               *****************************************************
               *                     SUCCESS                       *
               *           SCF CONVERGED AFTER   7 CYCLES          *
               *****************************************************

Recomputing exchange energy using gridx3       ... done (    0.833 sec)
Old exchange energy                            :     -3.514191079 Eh
New exchange energy                            :     -3.514138866 Eh
Exchange energy change after final integration :      0.000052212 Eh
Total energy after final integration           :   -114.416201877 Eh
             **** ENERGY FILE WAS UPDATED (H2CO.en.tmp) ****

----------------
TOTAL SCF ENERGY
----------------

Total Energy       :       -114.41620187702321 Eh           -3113.42314 eV

Components:
Nuclear Repulsion  :         31.39056021338444 Eh             854.18057 eV
Electronic Energy  :       -145.80681430279245 Eh           -3967.60513 eV
One Electron Energy:       -217.67603932448708 Eh           -5923.26616 eV
Two Electron Energy:         71.86922502169463 Eh            1955.66104 eV

Virial components:
Potential Energy   :       -228.19051503833214 Eh           -6209.37959 eV
Kinetic Energy     :        113.77431316130892 Eh            3095.95646 eV
Virial Ratio       :          2.00564177183653

DFT components:
N(Alpha)           :        8.000011070668 electrons
N(Beta)            :        8.000011070668 electrons
N(Total)           :       16.000022141336 electrons
E(X)               :      -10.539534378193 Eh       
E(C)               :       -0.516486784897 Eh       
E(XC)              :      -11.056021163091 Eh       

---------------
SCF CONVERGENCE
---------------

  Last Energy change         ...   -3.0481e-07  Tolerance :   1.0000e-06
  Last MAX-Density change    ...    1.5555e-04  Tolerance :   1.0000e-05
  Last RMS-Density change    ...    4.8819e-06  Tolerance :   1.0000e-06
  Last DIIS Error            ...    5.6750e-04  Tolerance :   1.0000e-06
  Last Orbital Gradient      ...    3.1301e-04  Tolerance :   5.0000e-05
  Last Orbital Rotation      ...    2.7543e-04  Tolerance :   5.0000e-05


----------------
ORBITAL ENERGIES
----------------

  NO   OCC          E(Eh)            E(eV) 
   0   2.0000     -19.231592      -523.3182 
   1   2.0000     -10.326497      -280.9983 
   2   2.0000      -1.099423       -29.9168 
   3   2.0000      -0.659439       -17.9442 
   4   2.0000      -0.517519       -14.0824 
   5   2.0000      -0.475233       -12.9317 
   6   2.0000      -0.423453       -11.5227 
   7   2.0000      -0.288886        -7.8610 
   8   0.0000      -0.051917        -1.4127 
   9   0.0000      -0.000399        -0.0109 
  10   0.0000       0.024899         0.6775 
  11   0.0000       0.040770         1.1094 
  12   0.0000       0.057334         1.5601 
  13   0.0000       0.089800         2.4436 
  14   0.0000       0.098915         2.6916 
  15   0.0000       0.121113         3.2957 
  16   0.0000       0.141964         3.8630 
  17   0.0000       0.144739         3.9385 
  18   0.0000       0.157974         4.2987 
*Only the first 10 virtual orbitals were printed.

                    ********************************
                    * MULLIKEN POPULATION ANALYSIS *
                    ********************************

-----------------------
MULLIKEN ATOMIC CHARGES
-----------------------
   0 C :   -0.298832
   1 O :   -0.400017
   2 H :    0.349423
   3 H :    0.349426
Sum of atomic charges:    0.0000000

--------------------------------
MULLIKEN REDUCED ORBITAL CHARGES
--------------------------------
  0 C s       :     3.495903  s :     3.495903
      pz      :     0.670344  p :     2.564708
      px      :     0.778161
      py      :     1.116204
      dz2     :     0.010427  d :     0.205346
      dxz     :     0.024322
      dyz     :     0.000000
      dx2y2   :    -0.000766
      dxy     :     0.171364
      f0      :     0.001643  f :     0.032875
      f+1     :     0.001444
      f-1     :     0.000684
      f+2     :     0.005040
      f-2     :     0.000000
      f+3     :     0.008416
      f-3     :     0.015646

  1 O s       :     3.929667  s :     3.929667
      pz      :     1.265119  p :     4.419686
      px      :     1.332600
      py      :     1.821967
      dz2     :     0.002962  d :     0.047077
      dxz     :     0.017717
      dyz     :     0.000000
      dx2y2   :     0.007945
      dxy     :     0.018453
      f0      :     0.000424  f :     0.003587
      f+1     :    -0.000210
      f-1     :     0.000004
      f+2     :     0.001413
      f-2     :     0.000000
      f+3     :     0.000183
      f-3     :     0.001773

  2 H s       :     0.636545  s :     0.636545
      pz      :     0.005594  p :     0.013188
      px      :    -0.003997
      py      :     0.011592
      dz2     :    -0.001131  d :     0.000844
      dxz     :     0.001423
      dyz     :    -0.000028
      dx2y2   :     0.001989
      dxy     :    -0.001408

  3 H s       :     0.636541  s :     0.636541
      pz      :     0.005594  p :     0.013189
      px      :    -0.003997
      py      :     0.011592
      dz2     :    -0.001131  d :     0.000844
      dxz     :     0.001423
      dyz     :    -0.000028
      dx2y2   :     0.001989
      dxy     :    -0.001408



                     *******************************
                     * LOEWDIN POPULATION ANALYSIS *
                     *******************************

----------------------
LOEWDIN ATOMIC CHARGES
----------------------
   0 C :    0.041706
   1 O :    0.423291
   2 H :   -0.232498
   3 H :   -0.232498

-------------------------------
LOEWDIN REDUCED ORBITAL CHARGES
-------------------------------
  0 C s       :     2.605836  s :     2.605836
      pz      :     0.503657  p :     2.256207
      px      :     0.883000
      py      :     0.869549
      dz2     :     0.063435  d :     0.785726
      dxz     :     0.099015
      dyz     :     0.000000
      dx2y2   :     0.191128
      dxy     :     0.432148
      f0      :     0.020521  f :     0.310525
      f+1     :     0.038491
      f-1     :     0.009752
      f+2     :     0.045237
      f-2     :     0.000000
      f+3     :     0.080322
      f-3     :     0.116203

  1 O s       :     3.252646  s :     3.252646
      pz      :     1.084728  p :     4.019990
      px      :     1.450364
      py      :     1.484898
      dz2     :     0.027172  d :     0.227453
      dxz     :     0.029052
      dyz     :     0.000000
      dx2y2   :     0.060915
      dxy     :     0.110315
      f0      :     0.005004  f :     0.076621
      f+1     :     0.010460
      f-1     :     0.001885
      f+2     :     0.009710
      f-2     :     0.000000
      f+3     :     0.015589
      f-3     :     0.033972

  2 H s       :     0.733285  s :     0.733285
      pz      :     0.052180  p :     0.299386
      px      :     0.091362
      py      :     0.155843
      dz2     :     0.026858  d :     0.199828
      dxz     :     0.025192
      dyz     :     0.024166
      dx2y2   :     0.075344
      dxy     :     0.048268

  3 H s       :     0.733285  s :     0.733285
      pz      :     0.052180  p :     0.299386
      px      :     0.091362
      py      :     0.155843
      dz2     :     0.026858  d :     0.199828
      dxz     :     0.025192
      dyz     :     0.024166
      dx2y2   :     0.075344
      dxy     :     0.048268



                      *****************************
                      * MAYER POPULATION ANALYSIS *
                      *****************************

  NA   - Mulliken gross atomic population
  ZA   - Total nuclear charge
  QA   - Mulliken gross atomic charge
  VA   - Mayer's total valence
  BVA  - Mayer's bonded valence
  FA   - Mayer's free valence

  ATOM       NA         ZA         QA         VA         BVA        FA
  0 C      6.2988     6.0000    -0.2988     3.5826     3.5826     0.0000
  1 O      8.4000     8.0000    -0.4000     1.9933     1.9933    -0.0000
  2 H      0.6506     1.0000     0.3494     0.8453     0.8453    -0.0000
  3 H      0.6506     1.0000     0.3494     0.8453     0.8453     0.0000

  Mayer bond orders larger than 0.100000
B(  0-C ,  1-O ) :   1.9833 B(  0-C ,  2-H ) :   0.7996 B(  0-C ,  3-H ) :   0.7996 


-------
TIMINGS
-------

Total SCF time: 0 days 0 hours 0 min 3 sec 

Total time                  ....       3.173 sec
Sum of individual times     ....       3.171 sec  ( 99.9%)

SCF preparation             ....       0.038 sec  (  1.2%)
Fock matrix formation       ....       3.092 sec  ( 97.4%)
  Startup                   ....       0.001 sec  (  0.0% of F)
  Split-RI-J                ....       0.118 sec  (  3.8% of F)
  Chain of spheres X        ....       2.232 sec  ( 72.2% of F)
  XC integration            ....       0.735 sec  ( 23.8% of F)
    XC Preparation          ....       0.000 sec  (  0.0% of XC)
    Basis function eval.    ....       0.213 sec  ( 29.0% of XC)
    Density eval.           ....       0.167 sec  ( 22.7% of XC)
    XC-Functional eval.     ....       0.033 sec  (  4.5% of XC)
    XC-Potential eval.      ....       0.307 sec  ( 41.7% of XC)
Diagonalization             ....       0.000 sec  (  0.0%)
Density matrix formation    ....       0.003 sec  (  0.1%)
Total Energy calculation    ....       0.001 sec  (  0.0%)
Population analysis         ....       0.001 sec  (  0.0%)
Orbital Transformation      ....       0.016 sec  (  0.5%)
Orbital Orthonormalization  ....       0.000 sec  (  0.0%)
DIIS solution               ....       0.014 sec  (  0.5%)
SOSCF solution              ....       0.004 sec  (  0.1%)
Finished LeanSCF after   3.2 sec

Maximum memory used throughout the entire LEANSCF-calculation: 12.8 MB

------------------------------------------------------------------------------
                         ORCA PROPERTY INTEGRAL CALCULATIONS
------------------------------------------------------------------------------

GBWName                                   ... H2CO.gbw
Number of atoms                           ...      4
Number of basis functions                 ...    150
Max core memory                           ...   1024 MB

Dipole integrals                          ... YES
Quadrupole integrals                      ...  NO
Linear momentum integrals                 ... YES
Angular momentum integrals                ... YES
Higher moments length integrals           ...  NO
Higher moments velocity integrals         ...  NO
Kinetic energy integrals                  ...  NO
GIAO right hand sides                     ...  NO
GIAO dipole derivative integrals          ...  NO
SOC integrals                             ...  NO
EPR diamagnetic integrals (GIAO)          ...  NO
EPR gauge integrals                       ...  NO
Field gradient integrals                  ...  NO (   0 nuclei)
Spin-dipole/Fermi contact integrals       ...  NO (   0 nuclei)
Contact density integrals                 ...  NO (   0 nuclei)
Nucleus-orbit integrals                   ...  NO (   0 nuclei)
Geometric perturbations                   ...  NO (   4 nuclei)

Choice of electric origin   ... Center of mass
Position of electric origin ... (  0.3234, -2.0238, -0.0000) 
Choice of magnetic origin   ... GIAO
Position of magnetic origin ... (  0.0000,  0.0000,  0.0000) 

Calculating integrals                     ... Electric Dipole (Length)     done (  0.0 sec)
Calculating integrals                     ... Linear Momentum              done (  0.0 sec)
Calculating integrals                     ... Angular Momentum  (ElOri)    done (  0.0 sec)

Property integrals calculated in   0.0 sec

Maximum memory used throughout the entire PROPINT-calculation: 11.5 MB
------------------------------------------------------------------------------
                        ORCA TD-DFT/TDA CALCULATION
------------------------------------------------------------------------------

Input orbitals are from        ... H2CO.gbw
CI-vector output               ... H2CO.cis
Solver                         ... FN-2001
Tamm-Dancoff approximation     ... operative
CIS-Integral strategy          ... AO-integrals
Integral handling              ... AO integral Direct
Max. core memory used          ... 512 MB
Reference state                ... RHF
Generation of triplets         ... off
Follow IRoot                   ... off
Number of operators            ... 1
Orbital ranges used for CIS calculation:
 Operator 0:  Orbitals   2...  7  to   8...137
XAS localization array:
 Operator 0:  Orbitals  -1... -1

-------------------
XC-INTEGRATION GRID
-------------------

General Integration Accuracy     IntAcc      ... 3.467
Radial Grid Type                 RadialGrid  ... OptM3 with GC (2021)
Angular Grid (max. ang.)         AngularGrid ... 1 (Lebedev-50)
Angular grid pruning method      GridPruning ... 4 (adaptive)
Weight generation scheme         WeightScheme... mBecke (2022)
Basis function cutoff            BFCut       ... 1.0000e-10
Integration weight cutoff        WCut        ... 1.0000e-14
Partially contracted basis set               ... off
Rotationally invariant grid construction     ... off
Angular grids for H and He will be reduced by one unit
Diffuse basis detected: some atoms will have their outermost
                        angular grid increased by 1.

Total number of grid points                  ...     2935
Total number of batches                      ...       48
Average number of points per batch           ...       61
Average number of grid points per atom       ...      734

---------------------
COSX-INTEGRATION GRID
---------------------

General Integration Accuracy     IntAcc      ... 3.067
Radial Grid Type                 RadialGrid  ... OptM3 with GC (2021)
Angular Grid (max. ang.)         AngularGrid ... 1 (Lebedev-50)
Angular grid pruning method      GridPruning ... 4 (adaptive)
Weight generation scheme         WeightScheme... mBecke (2022)
Basis function cutoff            BFCut       ... 1.0000e-10
Integration weight cutoff        WCut        ... 1.0000e-14
Partially contracted basis set               ... on
Rotationally invariant grid construction     ... off
Angular grids for H and He will be reduced by one unit
Diffuse basis detected: some atoms will have their outermost
                        angular grid increased by 1.

Total number of grid points                  ...     1307
Total number of batches                      ...       13
Average number of points per batch           ...      100
Average number of grid points per atom       ...      327

---------------
TD-DFT XC SETUP
---------------

DFT calculation                         ... on
Name of the grid file                   ... H2CO.grid_cis.tmp
RI-approximation                        ... on
Aux-basis dimension                     ... 0
Exchange functional (TD-DFT)            ... PBE
   PBE kappa parameter  XKappa (TD-DFT) ...  0.804000
   PBE mue parameter   XMuePBE (TD-DFT) ...  0.219520
Correlation functional (TD-DFT)         ... PBE
   PBE beta parameter CBetaPBE (TD-DFT) ...  0.066725
 LDA part of GGA corr.  LDAOpt (TD-DFT) ... PW91-LDA
Hybrid DFT                              ... on
   Exchange mixing (TD-DFT)             ...  0.250
   GGA exch. scaling (TD-DFT)           ...  0.750
   GGA corr. scaling (TD-DFT)           ...  1.000

Building densities             ... done
Calculating rho(r) on the grid ... done
Building xc-kernel on the grid ... done
                    *** TD-DFT CALCULATION INITIALIZED ***

------------------------
DAVIDSON-DIAGONALIZATION
------------------------

Dimension of the eigenvalue problem            ...    780
Number of roots to be determined               ...    100
Maximum size of the expansion space            ...    780
Maximum number of iterations                   ...    100
Convergence tolerance for the residual         ...    1.000e-06
Convergence tolerance for the energies         ...    1.000e-06
Orthogonality tolerance                        ...    1.000e-14
Level Shift                                    ...    0.000e+00
Constructing the preconditioner                ... o.k.
Building the initial guess                     ... o.k.
Number of trial vectors determined             ...    512


                       ****Iteration    0****
   Time for iteration     :  TOTAL=6.5 TRAFO=0.0 RIJ=0.4 COSX=2.3 XC=3.7
   Size of expansion space: 300
   Lowest Energy          :     0.147692366103
   Maximum Energy change  :     0.762079136300 (vector 99)
   Maximum residual norm  :     0.004506795990

                       ****Iteration    1****
   Time for iteration     :  TOTAL=1.8 TRAFO=0.0 RIJ=0.2 COSX=0.8 XC=0.9
   Size of expansion space: 400
   Lowest Energy          :     0.147222461770
   Maximum Energy change  :     0.001765038080 (vector 51)
   Maximum residual norm  :     0.000002242118

                       ****Iteration    2****
   Time for iteration     :  TOTAL=2.1 TRAFO=0.0 RIJ=0.1 COSX=0.7 XC=1.3
   Size of expansion space: 500
   Lowest Energy          :     0.147222357486
   Maximum Energy change  :     0.000000532123 (vector 16)

         *** CONVERGENCE OF ENERGIES REACHED ***

Storing the converged CI vectors               ... H2CO.cis1

                 *** DAVIDSON DONE ***

Total time for solving the CIS problem:    11.413sec

------------------------------------
TD-DFT/TDA EXCITED STATES (SINGLETS)
------------------------------------

the weight of the individual excitations are printed if larger than 1.0e-06

STATE  1:  E=   0.147222 au      4.006 eV    32311.6 cm**-1 <S**2> =   0.000000 Mult 1
     2a ->  19a  :     0.000008 (c=  0.00289768)
     2a ->  27a  :     0.000008 (c=  0.00285785)
     2a ->  39a  :     0.000013 (c=  0.00357834)
     2a ->  42a  :     0.000006 (c= -0.00246872)
     2a ->  50a  :     0.000007 (c= -0.00270384)
     2a ->  55a  :     0.000004 (c=  0.00187937)
     2a ->  63a  :     0.000008 (c= -0.00290710)
     2a ->  76a  :     0.000010 (c=  0.00320450)
     2a ->  85a  :     0.000003 (c= -0.00178064)
     2a -> 129a  :     0.000001 (c= -0.00107055)
     3a ->  39a  :     0.000004 (c=  0.00200224)
     3a ->  42a  :     0.000002 (c=  0.00142297)
     3a ->  50a  :     0.000002 (c= -0.00150357)
     3a ->  76a  :     0.000005 (c= -0.00221093)
     3a ->  91a  :     0.000002 (c=  0.00138083)
     4a ->   8a  :     0.001153 (c=  0.03396002)
     4a ->  12a  :     0.000043 (c=  0.00652365)
     4a ->  18a  :     0.000061 (c= -0.00782376)
     4a ->  22a  :     0.000047 (c= -0.00682802)
     4a ->  29a  :     0.000122 (c= -0.01105136)
     4a ->  33a  :     0.000007 (c=  0.00267604)
     4a ->  38a  :     0.000008 (c=  0.00288008)
     4a ->  44a  :     0.000004 (c= -0.00210993)
     4a ->  52a  :     0.000087 (c=  0.00934853)
     4a ->  56a  :     0.000007 (c= -0.00258037)
     4a ->  60a  :     0.000015 (c=  0.00391301)
     4a ->  66a  :     0.000002 (c= -0.00134044)
     4a ->  69a  :     0.000011 (c=  0.00335197)
     4a ->  75a  :     0.000004 (c=  0.00211322)
     4a ->  80a  :     0.000002 (c= -0.00130116)
     4a ->  92a  :     0.000003 (c=  0.00174338)
     4a ->  94a  :     0.000002 (c=  0.00127942)
     4a -> 101a  :     0.000002 (c=  0.00138590)
     4a -> 124a  :     0.000002 (c=  0.00126550)
     5a ->  27a  :     0.000001 (c= -0.00113083)
     5a ->  42a  :     0.000003 (c=  0.00172815)
     5a ->  50a  :     0.000001 (c= -0.00110604)
     5a ->  72a  :     0.000002 (c=  0.00141534)
     5a ->  76a  :     0.000008 (c= -0.00273878)
     5a ->  85a  :     0.000002 (c= -0.00151009)
     5a ->  96a  :     0.000002 (c=  0.00129502)
     5a -> 126a  :     0.000003 (c= -0.00172071)
     6a ->  10a  :     0.000001 (c= -0.00100555)
     6a ->  14a  :     0.000007 (c=  0.00255705)
     6a ->  17a  :     0.000013 (c= -0.00366197)
     6a ->  21a  :     0.000006 (c=  0.00235451)
     6a ->  24a  :     0.000002 (c=  0.00147084)
     6a ->  30a  :     0.000002 (c=  0.00154508)
     6a ->  35a  :     0.000003 (c= -0.00173069)
     6a ->  45a  :     0.000008 (c= -0.00291484)
     6a ->  54a  :     0.000007 (c=  0.00256493)
     6a ->  58a  :     0.000002 (c=  0.00147491)
     6a ->  62a  :     0.000007 (c= -0.00255289)
     6a ->  64a  :     0.000005 (c= -0.00233269)
     6a ->  74a  :     0.000001 (c= -0.00120427)
     6a ->  78a  :     0.000004 (c= -0.00211905)
     6a ->  86a  :     0.000001 (c=  0.00105068)
     6a ->  98a  :     0.000001 (c= -0.00102624)
     6a -> 123a  :     0.000002 (c=  0.00151356)
     6a -> 125a  :     0.000001 (c= -0.00121528)
     7a ->   8a  :     0.988556 (c= -0.99426141)
     7a ->  12a  :     0.006315 (c= -0.07946814)
     7a ->  18a  :     0.001595 (c=  0.03993805)
     7a ->  22a  :     0.000972 (c=  0.03118448)
     7a ->  29a  :     0.000266 (c=  0.01631700)
     7a ->  33a  :     0.000173 (c= -0.01314221)
     7a ->  38a  :     0.000050 (c=  0.00707467)
     7a ->  44a  :     0.000076 (c=  0.00871755)
     7a ->  47a  :     0.000003 (c= -0.00179381)
     7a ->  52a  :     0.000135 (c= -0.01162718)
     7a ->  60a  :     0.000034 (c= -0.00582458)
     7a ->  66a  :     0.000014 (c= -0.00370330)
     7a ->  75a  :     0.000011 (c= -0.00337918)
     7a ->  80a  :     0.000004 (c=  0.00194711)
     7a -> 101a  :     0.000006 (c= -0.00236585)
     7a -> 107a  :     0.000002 (c=  0.00147563)
     7a -> 114a  :     0.000001 (c= -0.00116034)
     7a -> 124a  :     0.000006 (c= -0.00236078)

STATE  2:  E=   0.246694 au      6.713 eV    54143.2 cm**-1 <S**2> =   0.000000 Mult 1
     2a ->  10a  :     0.000002 (c= -0.00143466)
     2a ->  14a  :     0.000003 (c=  0.00172531)
     2a ->  24a  :     0.000001 (c=  0.00115977)
     2a ->  28a  :     0.000001 (c=  0.00115543)
     3a ->  10a  :     0.000048 (c=  0.00692864)
     3a ->  14a  :     0.000007 (c= -0.00266470)
     3a ->  17a  :     0.000001 (c= -0.00111075)
     3a ->  21a  :     0.000008 (c=  0.00278627)
     3a ->  28a  :     0.000005 (c=  0.00230788)
     3a ->  30a  :     0.000022 (c= -0.00464584)
     3a ->  35a  :     0.000021 (c= -0.00453941)
     3a ->  43a  :     0.000003 (c= -0.00172237)
     3a ->  51a  :     0.000001 (c=  0.00121292)
     3a ->  64a  :     0.000001 (c=  0.00100114)
     4a ->   9a  :     0.000132 (c= -0.01149724)
     4a ->  11a  :     0.000207 (c=  0.01437672)
     4a ->  13a  :     0.000001 (c= -0.00120178)
     4a ->  15a  :     0.000042 (c=  0.00647716)
     4a ->  16a  :     0.000011 (c= -0.00335329)
     4a ->  20a  :     0.000006 (c= -0.00239373)
     4a ->  23a  :     0.000025 (c=  0.00498752)
     4a ->  26a  :     0.000028 (c=  0.00533756)
     4a ->  31a  :     0.000004 (c= -0.00187895)
     4a ->  32a  :     0.000039 (c= -0.00624694)
     4a ->  34a  :     0.000003 (c= -0.00175625)
     4a ->  36a  :     0.000015 (c= -0.00390580)
     4a ->  40a  :     0.000002 (c=  0.00130503)
     4a ->  48a  :     0.000006 (c=  0.00251041)
     4a ->  68a  :     0.000001 (c=  0.00119347)
     5a ->  10a  :     0.000005 (c= -0.00215228)
     5a ->  14a  :     0.000002 (c= -0.00146859)
     5a ->  17a  :     0.000004 (c=  0.00198808)
     5a ->  21a  :     0.000010 (c= -0.00309090)
     5a ->  28a  :     0.000003 (c= -0.00159046)
     5a ->  30a  :     0.000010 (c=  0.00322141)
     5a ->  35a  :     0.000007 (c=  0.00262682)
     6a ->  19a  :     0.000008 (c= -0.00275135)
     6a ->  27a  :     0.000010 (c= -0.00315303)
     7a ->   9a  :     0.979353 (c= -0.98962276)
     7a ->  11a  :     0.004848 (c= -0.06962693)
     7a ->  13a  :     0.014324 (c=  0.11968318)
     7a ->  15a  :     0.000166 (c=  0.01288866)
     7a ->  16a  :     0.000097 (c= -0.00983335)
     7a ->  20a  :     0.000060 (c=  0.00776360)
     7a ->  23a  :     0.000202 (c= -0.01420734)
     7a ->  25a  :     0.000047 (c=  0.00683039)
     7a ->  26a  :     0.000021 (c= -0.00458882)
     7a ->  31a  :     0.000043 (c=  0.00658350)
     7a ->  32a  :     0.000062 (c= -0.00788960)
     7a ->  34a  :     0.000028 (c=  0.00524671)
     7a ->  40a  :     0.000011 (c= -0.00330471)
     7a ->  48a  :     0.000004 (c= -0.00207122)
     7a ->  53a  :     0.000003 (c=  0.00174851)
     7a ->  57a  :     0.000001 (c=  0.00108936)

STATE  3:  E=   0.277752 au      7.558 eV    60959.5 cm**-1 <S**2> =   0.000000 Mult 1
     2a ->   9a  :     0.000005 (c= -0.00222129)
     2a ->  11a  :     0.000002 (c= -0.00126219)
     2a ->  13a  :     0.000003 (c=  0.00169247)
     2a ->  23a  :     0.000002 (c= -0.00123886)
     2a ->  31a  :     0.000003 (c=  0.00163583)
     2a ->  34a  :     0.000003 (c=  0.00164575)
     2a ->  48a  :     0.000002 (c= -0.00143180)
     3a ->  11a  :     0.000041 (c=  0.00640256)
     3a ->  13a  :     0.000051 (c=  0.00710950)
     3a ->  15a  :     0.000007 (c=  0.00263559)
     3a ->  16a  :     0.000006 (c=  0.00239636)
     3a ->  20a  :     0.000022 (c= -0.00468121)
     3a ->  23a  :     0.000003 (c= -0.00179098)
     3a ->  25a  :     0.000046 (c=  0.00678407)
     3a ->  26a  :     0.000054 (c= -0.00733663)
     3a ->  31a  :     0.000001 (c=  0.00103959)
     3a ->  32a  :     0.000003 (c=  0.00169836)
     3a ->  34a  :     0.000005 (c= -0.00228034)
     3a ->  40a  :     0.000007 (c= -0.00268438)
     3a ->  41a  :     0.000021 (c=  0.00456318)
     3a ->  46a  :     0.000006 (c=  0.00238236)
     3a ->  57a  :     0.000002 (c=  0.00125696)
     3a ->  65a  :     0.000001 (c=  0.00121162)
     4a ->  14a  :     0.000156 (c= -0.01248251)
     4a ->  17a  :     0.000012 (c=  0.00345273)
     4a ->  21a  :     0.000085 (c= -0.00920598)
     4a ->  24a  :     0.000027 (c= -0.00518400)
     4a ->  28a  :     0.000087 (c= -0.00933220)
     4a ->  30a  :     0.000012 (c=  0.00347537)
     4a ->  35a  :     0.000026 (c=  0.00510320)
     4a ->  37a  :     0.000006 (c= -0.00248384)
     4a ->  43a  :     0.000004 (c=  0.00211229)
     4a ->  45a  :     0.000002 (c= -0.00154110)
     4a ->  51a  :     0.000003 (c= -0.00169290)
     4a ->  64a  :     0.000001 (c= -0.00122119)
     5a ->   9a  :     0.000106 (c=  0.01028088)
     5a ->  11a  :     0.000023 (c=  0.00480019)
     5a ->  13a  :     0.000090 (c= -0.00950596)
     5a ->  15a  :     0.000020 (c= -0.00446261)
     5a ->  16a  :     0.000015 (c= -0.00384150)
     5a ->  23a  :     0.000033 (c=  0.00572796)
     5a ->  25a  :     0.000011 (c= -0.00334474)
     5a ->  26a  :     0.000020 (c=  0.00447968)
     5a ->  31a  :     0.000006 (c= -0.00236867)
     5a ->  34a  :     0.000003 (c=  0.00181607)
     5a ->  40a  :     0.000005 (c=  0.00215074)
     5a ->  41a  :     0.000007 (c= -0.00273802)
     5a ->  57a  :     0.000002 (c= -0.00132548)
     6a ->   8a  :     0.000695 (c=  0.02636691)
     6a ->  12a  :     0.000123 (c= -0.01108087)
     6a ->  18a  :     0.000043 (c= -0.00657423)
     6a ->  22a  :     0.000034 (c=  0.00587196)
     6a ->  29a  :     0.000006 (c= -0.00235701)
     6a ->  33a  :     0.000035 (c= -0.00588267)
     6a ->  38a  :     0.000002 (c=  0.00136207)
     6a ->  47a  :     0.000001 (c=  0.00117519)
     6a ->  56a  :     0.000001 (c= -0.00107564)
     6a ->  69a  :     0.000001 (c=  0.00113162)
     7a ->  10a  :     0.975665 (c= -0.98775754)
     7a ->  14a  :     0.021751 (c=  0.14748279)
     7a ->  17a  :     0.000002 (c=  0.00125156)
     7a ->  21a  :     0.000133 (c=  0.01154572)
     7a ->  24a  :     0.000294 (c=  0.01713559)
     7a ->  28a  :     0.000012 (c=  0.00346510)
     7a ->  30a  :     0.000096 (c=  0.00977268)
     7a ->  35a  :     0.000018 (c= -0.00425395)
     7a ->  37a  :     0.000003 (c=  0.00166402)
     7a ->  51a  :     0.000004 (c=  0.00208052)
     7a ->  58a  :     0.000001 (c=  0.00122231)
     7a ->  62a  :     0.000002 (c=  0.00132590)
     7a ->  67a  :     0.000002 (c=  0.00152270)

STATE  4:  E=   0.282284 au      7.681 eV    61954.1 cm**-1 <S**2> =   0.000000 Mult 1
     2a ->  35a  :     0.000001 (c= -0.00101860)
     2a ->  54a  :     0.000002 (c=  0.00126986)
     2a ->  58a  :     0.000001 (c=  0.00100773)
     3a ->  10a  :     0.000002 (c= -0.00149758)
     3a ->  14a  :     0.000024 (c=  0.00493168)
     3a ->  17a  :     0.000011 (c= -0.00336868)
     3a ->  24a  :     0.000023 (c=  0.00481651)
     3a ->  28a  :     0.000004 (c=  0.00191547)
     3a ->  30a  :     0.000013 (c= -0.00356232)
     3a ->  35a  :     0.000006 (c= -0.00240818)
     3a ->  37a  :     0.000004 (c=  0.00202086)
     3a ->  51a  :     0.000003 (c=  0.00168955)
     3a ->  54a  :     0.000004 (c= -0.00192173)
     4a ->   9a  :     0.000204 (c= -0.01427955)
     4a ->  11a  :     0.000006 (c= -0.00242544)
     4a ->  13a  :     0.000002 (c= -0.00148053)
     4a ->  15a  :     0.000423 (c=  0.02055529)
     4a ->  16a  :     0.000004 (c=  0.00198059)
     4a ->  23a  :     0.000082 (c= -0.00905460)
     4a ->  25a  :     0.000008 (c= -0.00277406)
     4a ->  26a  :     0.000026 (c=  0.00509247)
     4a ->  31a  :     0.000007 (c=  0.00264598)
     4a ->  32a  :     0.000020 (c= -0.00443485)
     4a ->  40a  :     0.000003 (c= -0.00185585)
     4a ->  41a  :     0.000002 (c= -0.00137173)
     4a ->  46a  :     0.000001 (c= -0.00118794)
     4a ->  48a  :     0.000006 (c=  0.00247304)
     4a ->  53a  :     0.000001 (c=  0.00113789)
     4a ->  61a  :     0.000002 (c= -0.00156163)
     4a ->  68a  :     0.000001 (c=  0.00105996)
     4a ->  87a  :     0.000001 (c=  0.00110999)
     5a ->  10a  :     0.000037 (c= -0.00608205)
     5a ->  14a  :     0.000011 (c=  0.00331098)
     5a ->  17a  :     0.000002 (c=  0.00151993)
     5a ->  21a  :     0.000029 (c=  0.00541284)
     5a ->  24a  :     0.000010 (c= -0.00320150)
     5a ->  37a  :     0.000001 (c= -0.00101586)
     5a ->  67a  :     0.000004 (c=  0.00206336)
     5a ->  86a  :     0.000002 (c= -0.00128014)
     6a ->  19a  :     0.000002 (c= -0.00122629)
     6a ->  27a  :     0.000003 (c=  0.00162053)
     6a ->  42a  :     0.000008 (c= -0.00275160)
     6a ->  63a  :     0.000003 (c= -0.00164009)
     6a ->  76a  :     0.000004 (c=  0.00188201)
     6a -> 129a  :     0.000001 (c= -0.00117095)
     7a ->   9a  :     0.005696 (c= -0.07547345)
     7a ->  11a  :     0.981082 (c=  0.99049582)
     7a ->  13a  :     0.001801 (c= -0.04243644)
     7a ->  15a  :     0.001096 (c=  0.03310261)
     7a ->  16a  :     0.001584 (c=  0.03979955)
     7a ->  20a  :     0.007217 (c= -0.08495163)
     7a ->  23a  :     0.000333 (c=  0.01825762)
     7a ->  25a  :     0.000018 (c= -0.00426482)
     7a ->  26a  :     0.000018 (c=  0.00426242)
     7a ->  31a  :     0.000037 (c=  0.00609407)
     7a ->  32a  :     0.000023 (c=  0.00481243)
     7a ->  34a  :     0.000003 (c=  0.00178053)
     7a ->  36a  :     0.000019 (c= -0.00439470)
     7a ->  40a  :     0.000013 (c=  0.00364016)
     7a ->  46a  :     0.000003 (c=  0.00160477)
     7a ->  49a  :     0.000003 (c=  0.00158122)
     7a ->  61a  :     0.000003 (c=  0.00175510)
     7a ->  65a  :     0.000001 (c= -0.00113622)
     7a ->  73a  :     0.000002 (c= -0.00153982)
     7a ->  77a  :     0.000002 (c=  0.00138859)
     7a ->  87a  :     0.000002 (c= -0.00144493)
     7a -> 130a  :     0.000001 (c=  0.00112128)

STATE  5:  E=   0.301409 au      8.202 eV    66151.5 cm**-1 <S**2> =   0.000000 Mult 1
     3a ->  19a  :     0.000051 (c=  0.00716485)
     3a ->  39a  :     0.000001 (c= -0.00100087)
     3a ->  50a  :     0.000001 (c=  0.00110153)
     4a ->   8a  :     0.000166 (c=  0.01288013)
     4a ->  12a  :     0.000029 (c= -0.00541225)
     4a ->  18a  :     0.000122 (c=  0.01105320)
     4a ->  22a  :     0.000039 (c=  0.00622686)
     4a ->  29a  :     0.000003 (c=  0.00183734)
     4a ->  38a  :     0.000010 (c=  0.00314722)
     4a ->  52a  :     0.000001 (c=  0.00119585)
     4a ->  69a  :     0.000001 (c=  0.00109089)
     5a ->  19a  :     0.000011 (c= -0.00336909)
     5a ->  27a  :     0.000008 (c=  0.00287537)
     6a ->  14a  :     0.000003 (c=  0.00164844)
     6a ->  17a  :     0.000009 (c= -0.00304371)
     6a ->  21a  :     0.000004 (c=  0.00194002)
     6a ->  24a  :     0.000001 (c=  0.00104075)
     6a ->  35a  :     0.000003 (c= -0.00158961)
     7a ->   8a  :     0.006402 (c=  0.08001550)
     7a ->  12a  :     0.987091 (c= -0.99352441)
     7a ->  18a  :     0.001819 (c= -0.04264651)
     7a ->  22a  :     0.003675 (c=  0.06061779)
     7a ->  29a  :     0.000097 (c= -0.00985946)
     7a ->  33a  :     0.000430 (c= -0.02073667)
     7a ->  38a  :     0.000002 (c= -0.00134515)
     7a ->  47a  :     0.000001 (c=  0.00108077)
     7a ->  56a  :     0.000002 (c= -0.00127088)
     7a ->  60a  :     0.000006 (c= -0.00236851)

STATE  6:  E=   0.339215 au      9.231 eV    74449.1 cm**-1 <S**2> =   0.000000 Mult 1
     2a ->   8a  :     0.002491 (c=  0.04991466)
     2a ->  12a  :     0.000093 (c=  0.00963435)
     2a ->  18a  :     0.000096 (c= -0.00978368)
     2a ->  22a  :     0.000058 (c= -0.00758293)
     2a ->  29a  :     0.000020 (c= -0.00444002)
     2a ->  33a  :     0.000024 (c=  0.00487048)
     2a ->  38a  :     0.000033 (c= -0.00575247)
     2a ->  44a  :     0.000005 (c= -0.00227406)
     2a ->  52a  :     0.000017 (c=  0.00415974)
     2a ->  60a  :     0.000002 (c=  0.00141957)
     3a ->   8a  :     0.000348 (c= -0.01866119)
     3a ->  12a  :     0.000006 (c= -0.00249591)
     3a ->  22a  :     0.000004 (c=  0.00195949)
     3a ->  33a  :     0.000002 (c= -0.00157428)
     3a ->  38a  :     0.000004 (c= -0.00206584)
     3a ->  44a  :     0.000008 (c=  0.00282579)
     3a ->  56a  :     0.000003 (c= -0.00164468)
     3a ->  60a  :     0.000005 (c= -0.00229484)
     3a ->  75a  :     0.000001 (c= -0.00108076)
     3a ->  80a  :     0.000004 (c= -0.00197668)
     3a ->  83a  :     0.000001 (c=  0.00113083)
     3a ->  88a  :     0.000002 (c= -0.00156599)
     3a ->  92a  :     0.000001 (c=  0.00109480)
     3a -> 101a  :     0.000003 (c=  0.00159973)
     3a -> 132a  :     0.000001 (c= -0.00101872)
     4a ->  27a  :     0.000039 (c= -0.00623872)
     4a ->  42a  :     0.000099 (c=  0.00994004)
     4a ->  63a  :     0.000013 (c=  0.00355708)
     4a ->  76a  :     0.000032 (c= -0.00565853)
     4a ->  85a  :     0.000001 (c=  0.00100350)
     4a ->  91a  :     0.000002 (c=  0.00132614)
     4a -> 129a  :     0.000001 (c=  0.00119142)
     5a ->   8a  :     0.982615 (c=  0.99126946)
     5a ->  12a  :     0.005813 (c=  0.07624454)
     5a ->  18a  :     0.001742 (c= -0.04173548)
     5a ->  22a  :     0.000876 (c= -0.02960536)
     5a ->  29a  :     0.000187 (c= -0.01368888)
     5a ->  33a  :     0.000159 (c=  0.01261311)
     5a ->  38a  :     0.000340 (c= -0.01843597)
     5a ->  44a  :     0.000030 (c= -0.00547864)
     5a ->  47a  :     0.000026 (c= -0.00510113)
     5a ->  52a  :     0.000087 (c=  0.00930564)
     5a ->  56a  :     0.000002 (c=  0.00149732)
     5a ->  66a  :     0.000009 (c=  0.00304509)
     5a ->  69a  :     0.000034 (c= -0.00585516)
     5a ->  75a  :     0.000030 (c= -0.00547588)
     5a ->  80a  :     0.000081 (c= -0.00898594)
     5a ->  83a  :     0.000015 (c=  0.00383014)
     5a ->  88a  :     0.000004 (c= -0.00202148)
     5a ->  92a  :     0.000006 (c= -0.00235412)
     5a -> 101a  :     0.000013 (c=  0.00354530)
     5a -> 128a  :     0.000002 (c= -0.00126634)
     5a -> 132a  :     0.000009 (c= -0.00298963)
     6a ->   9a  :     0.000104 (c=  0.01018716)
     6a ->  11a  :     0.000522 (c= -0.02285749)
     6a ->  13a  :     0.000043 (c= -0.00656032)
     6a ->  15a  :     0.000066 (c=  0.00813061)
     6a ->  16a  :     0.000097 (c=  0.00983883)
     6a ->  20a  :     0.000296 (c=  0.01720812)
     6a ->  23a  :     0.000009 (c= -0.00292083)
     6a ->  25a  :     0.000080 (c= -0.00893032)
     6a ->  31a  :     0.000002 (c=  0.00147312)
     6a ->  32a  :     0.000019 (c= -0.00435122)
     6a ->  34a  :     0.000064 (c= -0.00799510)
     6a ->  36a  :     0.000238 (c= -0.01542013)
     6a ->  40a  :     0.000082 (c= -0.00903879)
     6a ->  41a  :     0.000077 (c= -0.00878097)
     6a ->  46a  :     0.000003 (c= -0.00173917)
     6a ->  48a  :     0.000005 (c= -0.00223438)
     6a ->  49a  :     0.000005 (c=  0.00217149)
     6a ->  57a  :     0.000011 (c=  0.00332887)
     6a ->  59a  :     0.000002 (c=  0.00151943)
     6a ->  61a  :     0.000001 (c=  0.00115531)
     6a ->  65a  :     0.000020 (c=  0.00447673)
     6a ->  73a  :     0.000019 (c=  0.00434474)
     6a ->  77a  :     0.000076 (c= -0.00871108)
     6a ->  79a  :     0.000015 (c=  0.00382234)
     6a ->  84a  :     0.000003 (c= -0.00162859)
     6a -> 122a  :     0.000001 (c= -0.00109405)
     6a -> 130a  :     0.000003 (c= -0.00184903)
     6a -> 131a  :     0.000001 (c= -0.00113274)
     7a ->  19a  :     0.001650 (c=  0.04062407)
     7a ->  27a  :     0.000436 (c=  0.02088069)
     7a ->  39a  :     0.000140 (c=  0.01184006)
     7a ->  42a  :     0.000232 (c= -0.01523278)
     7a ->  50a  :     0.000002 (c=  0.00133464)
     7a ->  55a  :     0.000007 (c=  0.00266588)
     7a ->  63a  :     0.000005 (c= -0.00219332)
     7a ->  72a  :     0.000004 (c= -0.00211125)
     7a ->  76a  :     0.000126 (c=  0.01121693)
     7a ->  91a  :     0.000001 (c=  0.00105553)
     7a ->  96a  :     0.000002 (c= -0.00154314)
     7a -> 126a  :     0.000003 (c=  0.00181967)
     7a -> 129a  :     0.000005 (c= -0.00227543)

STATE  7:  E=   0.341161 au      9.283 eV    74876.3 cm**-1 <S**2> =   0.000000 Mult 1
     2a ->  14a  :     0.000002 (c=  0.00148749)
     2a ->  24a  :     0.000004 (c=  0.00189556)
     2a ->  28a  :     0.000001 (c=  0.00105527)
     2a ->  30a  :     0.000001 (c=  0.00106403)
     3a ->  10a  :     0.000003 (c=  0.00165955)
     3a ->  14a  :     0.000024 (c= -0.00493748)
     3a ->  21a  :     0.000027 (c=  0.00521233)
     3a ->  24a  :     0.000016 (c= -0.00403898)
     3a ->  28a  :     0.000007 (c=  0.00255493)
     3a ->  30a  :     0.000054 (c= -0.00733050)
     3a ->  35a  :     0.000067 (c= -0.00821072)
     3a ->  43a  :     0.000003 (c= -0.00176569)
     3a ->  51a  :     0.000008 (c=  0.00283310)
     3a ->  54a  :     0.000002 (c= -0.00144823)
     3a ->  64a  :     0.000001 (c=  0.00111484)
     3a ->  70a  :     0.000003 (c= -0.00170138)
     3a ->  86a  :     0.000001 (c=  0.00102892)
     4a ->   9a  :     0.000008 (c=  0.00276341)
     4a ->  11a  :     0.000007 (c=  0.00264103)
     4a ->  13a  :     0.000007 (c= -0.00264092)
     4a ->  15a  :     0.000285 (c=  0.01689471)
     4a ->  16a  :     0.000029 (c= -0.00535239)
     4a ->  20a  :     0.000056 (c= -0.00745930)
     4a ->  23a  :     0.000042 (c=  0.00648695)
     4a ->  26a  :     0.000096 (c=  0.00979281)
     4a ->  31a  :     0.000011 (c=  0.00326464)
     4a ->  32a  :     0.000081 (c= -0.00902100)
     4a ->  34a  :     0.000001 (c=  0.00107908)
     4a ->  36a  :     0.000039 (c= -0.00627389)
     4a ->  40a  :     0.000014 (c=  0.00379530)
     4a ->  48a  :     0.000003 (c=  0.00163963)
     4a ->  57a  :     0.000001 (c=  0.00108849)
     4a ->  61a  :     0.000002 (c= -0.00157982)
     4a ->  71a  :     0.000002 (c= -0.00130130)
     4a ->  73a  :     0.000001 (c=  0.00109986)
     5a ->  10a  :     0.000001 (c=  0.00112577)
     5a ->  17a  :     0.000005 (c= -0.00223421)
     5a ->  21a  :     0.000017 (c= -0.00408125)
     5a ->  28a  :     0.000012 (c= -0.00340216)
     5a ->  30a  :     0.000012 (c=  0.00341486)
     5a ->  35a  :     0.000026 (c=  0.00506590)
     5a ->  37a  :     0.000001 (c=  0.00116068)
     5a ->  43a  :     0.000004 (c=  0.00191452)
     5a ->  51a  :     0.000002 (c= -0.00123435)
     5a ->  54a  :     0.000001 (c=  0.00100543)
     6a ->  19a  :     0.000096 (c= -0.00980441)
     6a ->  27a  :     0.000013 (c= -0.00355323)
     6a ->  39a  :     0.000007 (c= -0.00261323)
     6a ->  42a  :     0.000001 (c= -0.00116100)
     7a ->   9a  :     0.013104 (c=  0.11447384)
     7a ->  11a  :     0.003540 (c=  0.05949777)
     7a ->  13a  :     0.959195 (c=  0.97938490)
     7a ->  15a  :     0.018459 (c= -0.13586213)
     7a ->  16a  :     0.001400 (c= -0.03741104)
     7a ->  20a  :     0.000813 (c=  0.02851949)
     7a ->  23a  :     0.000441 (c= -0.02100501)
     7a ->  25a  :     0.000462 (c=  0.02149896)
     7a ->  26a  :     0.000958 (c= -0.03095619)
     7a ->  31a  :     0.000013 (c=  0.00364225)
     7a ->  32a  :     0.000346 (c= -0.01859252)
     7a ->  34a  :     0.000092 (c=  0.00960791)
     7a ->  40a  :     0.000012 (c= -0.00352115)
     7a ->  41a  :     0.000008 (c= -0.00274426)
     7a ->  46a  :     0.000005 (c=  0.00224576)
     7a ->  53a  :     0.000004 (c=  0.00211892)
     7a ->  57a  :     0.000007 (c=  0.00255453)
     7a ->  59a  :     0.000002 (c=  0.00155526)
     7a ->  61a  :     0.000006 (c= -0.00250548)
     7a ->  90a  :     0.000001 (c=  0.00116176)

STATE  8:  E=   0.347618 au      9.459 eV    76293.3 cm**-1 <S**2> =   0.000000 Mult 1
     2a ->  11a  :     0.000014 (c=  0.00376980)
     2a ->  20a  :     0.000013 (c= -0.00356738)
     2a ->  23a  :     0.000004 (c=  0.00200085)
     2a ->  25a  :     0.000002 (c=  0.00138809)
     2a ->  31a  :     0.000001 (c=  0.00101949)
     2a ->  32a  :     0.000004 (c=  0.00208995)
     2a ->  34a  :     0.000009 (c=  0.00303562)
     2a ->  36a  :     0.000004 (c=  0.00207335)
     2a ->  40a  :     0.000001 (c=  0.00102225)
     2a ->  48a  :     0.000005 (c= -0.00222928)
     2a ->  57a  :     0.000003 (c= -0.00182157)
     3a ->   9a  :     0.000205 (c= -0.01430249)
     3a ->  11a  :     0.000093 (c= -0.00966630)
     3a ->  13a  :     0.000234 (c=  0.01530491)
     3a ->  15a  :     0.000017 (c= -0.00409842)
     3a ->  20a  :     0.000015 (c=  0.00383154)
     3a ->  23a  :     0.000008 (c= -0.00278400)
     3a ->  25a  :     0.000003 (c=  0.00176070)
     3a ->  26a  :     0.000025 (c= -0.00504086)
     3a ->  31a  :     0.000003 (c=  0.00186931)
     3a ->  32a  :     0.000002 (c= -0.00134979)
     3a ->  34a  :     0.000009 (c=  0.00302227)
     3a ->  36a  :     0.000001 (c=  0.00103471)
     3a ->  40a  :     0.000001 (c= -0.00117659)
     3a ->  48a  :     0.000002 (c= -0.00136340)
     3a ->  61a  :     0.000002 (c= -0.00123988)
     4a ->  10a  :     0.000063 (c=  0.00793153)
     4a ->  14a  :     0.000061 (c= -0.00781617)
     4a ->  17a  :     0.000649 (c= -0.02546932)
     4a ->  24a  :     0.000063 (c= -0.00793742)
     4a ->  28a  :     0.000034 (c= -0.00584049)
     4a ->  30a  :     0.000128 (c=  0.01132316)
     4a ->  35a  :     0.000005 (c= -0.00213407)
     4a ->  37a  :     0.000017 (c= -0.00414749)
     4a ->  43a  :     0.000005 (c=  0.00219701)
     4a ->  51a  :     0.000003 (c= -0.00158253)
     4a ->  58a  :     0.000003 (c=  0.00164915)
     5a ->   9a  :     0.000115 (c= -0.01073929)
     5a ->  11a  :     0.000018 (c=  0.00423313)
     5a ->  13a  :     0.000003 (c=  0.00184394)
     5a ->  15a  :     0.000036 (c=  0.00601092)
     5a ->  16a  :     0.000049 (c=  0.00700375)
     5a ->  20a  :     0.000142 (c= -0.01192018)
     5a ->  23a  :     0.000100 (c= -0.00999378)
     5a ->  25a  :     0.000013 (c= -0.00363962)
     5a ->  26a  :     0.000001 (c= -0.00102531)
     5a ->  31a  :     0.000109 (c=  0.01046218)
     5a ->  32a  :     0.000074 (c=  0.00859309)
     5a ->  34a  :     0.000224 (c=  0.01497476)
     5a ->  36a  :     0.000070 (c=  0.00834942)
     5a ->  40a  :     0.000004 (c= -0.00196809)
     5a ->  41a  :     0.000008 (c= -0.00285108)
     5a ->  46a  :     0.000002 (c= -0.00129396)
     5a ->  48a  :     0.000026 (c= -0.00511103)
     5a ->  57a  :     0.000015 (c= -0.00388033)
     5a ->  59a  :     0.000002 (c=  0.00136942)
     5a ->  61a  :     0.000004 (c= -0.00190356)
     5a ->  71a  :     0.000001 (c=  0.00106270)
     6a ->   8a  :     0.067306 (c=  0.25943354)
     6a ->  12a  :     0.000277 (c= -0.01664011)
     6a ->  22a  :     0.000052 (c=  0.00721691)
     6a ->  33a  :     0.000032 (c= -0.00568825)
     6a ->  38a  :     0.000005 (c= -0.00229465)
     6a ->  47a  :     0.000001 (c= -0.00100344)
     6a ->  60a  :     0.000003 (c= -0.00175785)
     6a ->  75a  :     0.000002 (c= -0.00156986)
     7a ->  10a  :     0.017824 (c= -0.13350670)
     7a ->  14a  :     0.872361 (c= -0.93400289)
     7a ->  17a  :     0.033850 (c=  0.18398323)
     7a ->  21a  :     0.000019 (c= -0.00437898)
     7a ->  24a  :     0.003386 (c= -0.05818529)
     7a ->  28a  :     0.000471 (c= -0.02170983)
     7a ->  30a  :     0.001468 (c= -0.03830987)
     7a ->  35a  :     0.000038 (c= -0.00616938)
     7a ->  37a  :     0.000083 (c= -0.00913367)
[...]
  0-1A  -> 82-1A   19.185492  154741.4    64.6   -0.00023  -0.00000  -0.00000  -0.00000
  0-1A  -> 83-1A   19.192731  154799.8    64.6    0.00003  -0.00641   0.00000   0.00000
  0-1A  -> 84-1A   19.263972  155374.4    64.4    0.00000   0.00000   0.00000   0.01236
  0-1A  -> 85-1A   19.510218  157360.5    63.5    0.00000  -0.00000   0.00000   0.00000
  0-1A  -> 86-1A   19.566334  157813.1    63.4    0.00000  -0.00000   0.00000  -0.00000
  0-1A  -> 87-1A   19.625588  158291.1    63.2   -0.00001  -0.00000  -0.00000  -0.06710
  0-1A  -> 88-1A   19.760390  159378.3    62.7   -0.00001   0.00000   0.00000  -0.00000
  0-1A  -> 89-1A   19.978594  161138.2    62.1    0.00000  -0.00000  -0.00000  -0.00000
  0-1A  -> 90-1A   20.172736  162704.1    61.5    0.00000  -0.00000  -0.00000  -0.00000
  0-1A  -> 91-1A   20.182949  162786.5    61.4   -0.00000  -0.00731   0.00000   0.00000
  0-1A  -> 92-1A   20.243295  163273.2    61.2   -0.00000  -0.00000  -0.00000  -0.08601
  0-1A  -> 93-1A   20.409518  164613.9    60.7    0.00000  -0.03621  -0.00000   0.00000
  0-1A  -> 94-1A   20.436614  164832.4    60.7    0.00000   0.00000  -0.00000  -0.00000
  0-1A  -> 95-1A   20.536059  165634.5    60.4    0.00001  -0.00000  -0.00000  -0.06554
  0-1A  -> 96-1A   20.539771  165664.4    60.4   -0.00001   0.00000   0.00000   0.00001
  0-1A  -> 97-1A   20.607538  166211.0    60.2   -0.00344   0.00000   0.00011   0.09031
  0-1A  -> 98-1A   20.607748  166212.7    60.2    0.00344   0.00000  -0.10111   0.00010
  0-1A  -> 99-1A   20.639319  166467.4    60.1   -0.00005   0.00000   0.00000   0.01243
  0-1A  -> 100-1A   20.734018  167231.2    59.8   -0.00003  -0.00000   0.06524  -0.00000

------------------------------------------------------------------------------------------
                     CD SPECTRUM VIA TRANSITION VELOCITY DIPOLE MOMENTS    
------------------------------------------------------------------------------------------
     Transition      Energy     Energy  Wavelength    R        MX        MY        MZ   
                      (eV)      (cm-1)    (nm)   (1e40*cgs)   (au)      (au)      (au)  
------------------------------------------------------------------------------------------
  0-1A  ->  1-1A    4.006124   32311.6   309.5   -0.00003   0.59738  -0.00000  -0.00001
  0-1A  ->  2-1A    6.712895   54143.2   184.7   -0.00000  -0.00000  -0.00000  -0.21508
  0-1A  ->  3-1A    7.558015   60959.5   164.0   -0.00000   0.00000  -0.00000   0.00000
  0-1A  ->  4-1A    7.681332   61954.1   161.4    0.00001   0.00001   0.00001   0.33413
  0-1A  ->  5-1A    8.201744   66151.5   151.2    0.00001   0.02232   0.00000  -0.00000
  0-1A  ->  6-1A    9.230517   74449.1   134.3   -0.00001  -0.00000  -0.69990   0.00001
  0-1A  ->  7-1A    9.283473   74876.3   133.6    0.00000  -0.00001  -0.00001  -0.32785
  0-1A  ->  8-1A    9.459164   76293.3   131.1   -0.00001  -0.00000   0.00000   0.00000
  0-1A  ->  9-1A    9.858104   79511.0   125.8    0.00002   0.00001   0.00001   0.41100
  0-1A  -> 10-1A    9.870644   79612.1   125.6    0.00002  -0.00000   0.00000   0.00000
  0-1A  -> 11-1A   10.217287   82408.0   121.3   -0.00004  -0.32195   0.00000   0.00001
  0-1A  -> 12-1A   10.378155   83705.5   119.5    0.00008   0.00000   0.02656   0.00000
  0-1A  -> 13-1A   10.383884   83751.7   119.4   -0.00006   0.00000   0.00000   0.08982
  0-1A  -> 14-1A   10.777021   86922.5   115.0   -0.00000   0.04419  -0.00000  -0.00000
  0-1A  -> 15-1A   11.213062   90439.5   110.6   -0.00000   0.02029  -0.00000  -0.00000
  0-1A  -> 16-1A   11.233913   90607.6   110.4   -0.00002   0.00000   0.42753  -0.00001
  0-1A  -> 17-1A   11.277607   90960.0   109.9    0.00002  -0.00000  -0.00000   0.00000
  0-1A  -> 18-1A   11.408122   92012.7   108.7   -0.00001   0.00000  -0.16159   0.00000
  0-1A  -> 19-1A   11.590777   93485.9   107.0   -0.00004   0.00001   0.00001   0.37076
  0-1A  -> 20-1A   11.943430   96330.3   103.8    0.00000   0.00000  -0.00000   0.00000
  0-1A  -> 21-1A   12.029412   97023.8   103.1    0.00000   0.00000   0.00000   0.00000
  0-1A  -> 22-1A   12.662507  102130.0    97.9    0.00001  -0.00000  -0.00000  -0.06283
  0-1A  -> 23-1A   12.718678  102583.1    97.5   -0.00003   0.00000  -0.00000   0.00000
  0-1A  -> 24-1A   12.811130  103328.7    96.8   -0.00005  -0.00000  -0.00000   0.00000
  0-1A  -> 25-1A   12.857907  103706.0    96.4    0.00002  -0.00000   0.05324  -0.00000
  0-1A  -> 26-1A   12.895260  104007.3    96.1   -0.00002  -0.00000  -0.00000  -0.15831
  0-1A  -> 27-1A   13.068568  105405.1    94.9    0.00009   0.08353   0.00000  -0.00000
  0-1A  -> 28-1A   13.135778  105947.2    94.4    0.00000  -0.00112   0.00000  -0.00000
  0-1A  -> 29-1A   13.315467  107396.5    93.1    0.00000   0.00000  -0.15194   0.00000
  0-1A  -> 30-1A   13.515166  109007.2    91.7    0.00001   0.00000   0.03979  -0.00000
  0-1A  -> 31-1A   13.869294  111863.4    89.4   -0.00008   0.00000   0.06940  -0.00000
  0-1A  -> 32-1A   13.900331  112113.7    89.2   -0.00000   0.00000   0.00000   0.00000
  0-1A  -> 33-1A   13.918491  112260.2    89.1    0.00012   0.00000   0.00000   0.07636
  0-1A  -> 34-1A   14.047341  113299.5    88.3   -0.00003  -0.00000  -0.00000  -0.17455
  0-1A  -> 35-1A   14.068256  113468.2    88.1   -0.00000   0.00127  -0.00000  -0.00000
  0-1A  -> 36-1A   14.104877  113763.5    87.9   -0.00001   0.00000  -0.00000   0.00000
  0-1A  -> 37-1A   14.385081  116023.5    86.2   -0.00002  -0.00000   0.00000   0.00000
  0-1A  -> 38-1A   14.392600  116084.2    86.1    0.00002  -0.02316   0.00000   0.00000
  0-1A  -> 39-1A   14.504163  116984.0    85.5    0.00000  -0.00000  -0.00000  -0.01084
  0-1A  -> 40-1A   14.578131  117580.6    85.0    0.00001   0.00000   0.00000   0.05728
  0-1A  -> 41-1A   14.616823  117892.6    84.8    0.00000  -0.00000  -0.00000   0.00000
  0-1A  -> 42-1A   14.920928  120345.4    83.1    0.00000  -0.00000  -0.00000  -0.20490
  0-1A  -> 43-1A   14.948538  120568.1    82.9    0.00035   0.00000   0.00000   0.09993
  0-1A  -> 44-1A   15.009360  121058.7    82.6   -0.00029   0.00000   0.24025  -0.00001
  0-1A  -> 45-1A   15.032080  121241.9    82.5    0.00000  -0.00000   0.00000  -0.00000
  0-1A  -> 46-1A   15.265470  123124.3    81.2    0.00001  -0.00000  -0.04701   0.00000
  0-1A  -> 47-1A   15.363518  123915.1    80.7    0.00000   0.00000  -0.00000   0.00000
  0-1A  -> 48-1A   15.459596  124690.1    80.2   -0.00003  -0.00001  -0.00001  -0.27663
  0-1A  -> 49-1A   15.523922  125208.9    79.9    0.00006  -0.00000  -0.00000  -0.07146
  0-1A  -> 50-1A   15.544062  125371.3    79.8    0.00008   0.00000   0.00000  -0.00000
  0-1A  -> 51-1A   15.593580  125770.7    79.5   -0.00007   0.00007  -0.17486   0.00000
  0-1A  -> 52-1A   15.593903  125773.3    79.5   -0.00007   0.02675   0.00046  -0.00000
  0-1A  -> 53-1A   15.788982  127346.7    78.5    0.00002   0.00000   0.02937  -0.00000
  0-1A  -> 54-1A   15.861848  127934.4    78.2    0.00000  -0.00000   0.00000   0.00000
  0-1A  -> 55-1A   16.089755  129772.6    77.1    0.00000   0.02129  -0.00000   0.00000
  0-1A  -> 56-1A   16.219172  130816.5    76.4    0.00001  -0.00001  -0.00001  -0.31699
  0-1A  -> 57-1A   16.404151  132308.4    75.6   -0.00000   0.08010   0.00000  -0.00000
  0-1A  -> 58-1A   16.543678  133433.8    74.9   -0.00001   0.00000   0.00000   0.10187
  0-1A  -> 59-1A   16.677237  134511.0    74.3    0.00000   0.00000  -0.00000   0.00000
  0-1A  -> 60-1A   16.734580  134973.5    74.1   -0.00000  -0.00000  -0.00000  -0.00000
  0-1A  -> 61-1A   16.824049  135695.1    73.7   -0.00000  -0.00000  -0.00000   0.00000
  0-1A  -> 62-1A   16.894578  136264.0    73.4   -0.00004  -0.00001  -0.00001  -0.31237
  0-1A  -> 63-1A   17.149542  138320.4    72.3   -0.00000   0.00561   0.00000  -0.00000
  0-1A  -> 64-1A   17.397659  140321.6    71.3    0.00000  -0.00000   0.00000   0.00000
  0-1A  -> 65-1A   17.487629  141047.3    70.9    0.00014   0.00000  -0.26915   0.00001
  0-1A  -> 66-1A   17.537302  141447.9    70.7   -0.00011   0.00000   0.00000   0.09455
  0-1A  -> 67-1A   17.649168  142350.2    70.2    0.00001   0.00000   0.00000   0.13967
  0-1A  -> 68-1A   17.655653  142402.5    70.2   -0.00003   0.00000  -0.18024   0.00001
  0-1A  -> 69-1A   17.733535  143030.6    69.9    0.00000  -0.00000   0.00000   0.00000
  0-1A  -> 70-1A   17.798832  143557.3    69.7   -0.00000  -0.00327  -0.00000   0.00000
  0-1A  -> 71-1A   18.006757  145234.3    68.9    0.00002  -0.00001  -0.00001  -0.27103
  0-1A  -> 72-1A   18.139425  146304.3    68.4   -0.00001  -0.00000   0.06575  -0.00000
  0-1A  -> 73-1A   18.174271  146585.4    68.2    0.00001  -0.00000   0.00000  -0.00000
  0-1A  -> 74-1A   18.219422  146949.6    68.1   -0.00000  -0.00000   0.05333  -0.00000
  0-1A  -> 75-1A   18.464533  148926.5    67.1   -0.00000  -0.00000  -0.06284   0.00000
  0-1A  -> 76-1A   18.511014  149301.4    67.0   -0.00000   0.00297  -0.00000  -0.00000
  0-1A  -> 77-1A   18.651172  150431.9    66.5   -0.00001   0.00000   0.00000   0.06737
  0-1A  -> 78-1A   18.773653  151419.7    66.0    0.00003   0.00000   0.01957  -0.00000
  0-1A  -> 79-1A   18.809960  151712.6    65.9   -0.00001   0.00000   0.00000   0.04107
  0-1A  -> 80-1A   18.911634  152532.6    65.6   -0.00001   0.00000  -0.00000   0.00000
  0-1A  -> 81-1A   19.177503  154677.0    64.7    0.00015  -0.06682  -0.00000   0.00000
  0-1A  -> 82-1A   19.185492  154741.4    64.6   -0.00016  -0.00000  -0.00000  -0.00000
  0-1A  -> 83-1A   19.192731  154799.8    64.6    0.00002  -0.00641   0.00000   0.00000
  0-1A  -> 84-1A   19.263972  155374.4    64.4    0.00000   0.00000   0.00000   0.01236
  0-1A  -> 85-1A   19.510218  157360.5    63.5    0.00000  -0.00000   0.00000   0.00000
  0-1A  -> 86-1A   19.566334  157813.1    63.4   -0.00000  -0.00000   0.00000  -0.00000
  0-1A  -> 87-1A   19.625588  158291.1    63.2   -0.00000  -0.00000  -0.00000  -0.06710
  0-1A  -> 88-1A   19.760390  159378.3    62.7   -0.00001   0.00000   0.00000  -0.00000
  0-1A  -> 89-1A   19.978594  161138.2    62.1    0.00000  -0.00000  -0.00000  -0.00000
  0-1A  -> 90-1A   20.172736  162704.1    61.5    0.00000  -0.00000  -0.00000  -0.00000
  0-1A  -> 91-1A   20.182949  162786.5    61.4   -0.00000  -0.00731   0.00000   0.00000
  0-1A  -> 92-1A   20.243295  163273.2    61.2   -0.00001  -0.00000  -0.00000  -0.08601
  0-1A  -> 93-1A   20.409518  164613.9    60.7    0.00000  -0.03621  -0.00000   0.00000
  0-1A  -> 94-1A   20.436614  164832.4    60.7    0.00000   0.00000  -0.00000  -0.00000
  0-1A  -> 95-1A   20.536059  165634.5    60.4    0.00001  -0.00000  -0.00000  -0.06554
  0-1A  -> 96-1A   20.539771  165664.4    60.4   -0.00001   0.00000   0.00000   0.00001
  0-1A  -> 97-1A   20.607538  166211.0    60.2   -0.00257   0.00000   0.00011   0.09031
  0-1A  -> 98-1A   20.607748  166212.7    60.2    0.00257   0.00000  -0.10111   0.00010
  0-1A  -> 99-1A   20.639319  166467.4    60.1   -0.00005   0.00000   0.00000   0.01243
  0-1A  -> 100-1A   20.734018  167231.2    59.8    0.00001  -0.00000   0.06524  -0.00000

Total run time:       11.520 sec

           *** ORCA-CIS/TD-DFT FINISHED WITHOUT ERROR ***
-----------------------
CIS/TD-DFT TOTAL ENERGY
-----------------------

    E(SCF)  =   -114.416201877 Eh
    DE(CIS) =      0.147222357 Eh (Root  1)
    ----------------------------- ---------
    E(tot)  =   -114.268979520 Eh


Maximum memory used throughout the entire CIS-calculation: 364.2 MB
=> NOW LEAVING ORCA_CIS

-------------------------   --------------------
FINAL SINGLE POINT ENERGY      -114.268979519537
-------------------------   --------------------


------------------------------------------------------------------------------
                              ORCA PROPERTY CALCULATIONS
------------------------------------------------------------------------------

GBWName                                 ... H2CO.gbw
Number of atoms                         ...      4
Number of basis functions               ...    150
Max core memory                         ...   1024 MB

Electric properties:
Dipole moment                           ... YES
Quadrupole moment                       ...  NO
Static polarizability (Dipole/Dipole)   ...  NO
Static polarizability (Dipole/Quad.)    ...  NO
Static polarizability (Quad./Quad.)     ...  NO
Static polarizability (Velocity)        ...  NO

Atomic electric properties:
Dipole moment                           ...  NO
Quadrupole moment                       ...  NO
Static polarizability                   ...  NO

Choice of electric origin               ... Center of mass
Position of electric origin             ...     0.323355    -2.023819    -0.000007

General magnetic properties:
Magnetizability                         ...  NO

EPR properties:
g-Tensor (aka g-matrix)                 ...  NO
Zero-Field splitting spin-orbit         ...  NO
Zero-field splitting spin-spin          ...  NO
Hyperfine couplings                     ...  NO (   0 nuclei)
Quadrupole couplings                    ...  NO (   0 nuclei)
Contact density                         ...  NO (   0 nuclei)

NMR properties:
Chemical shifts                         ...  NO (   0 nuclei)
Spin-rotation constants                 ...  NO (   0 nuclei)
Spin-spin couplings                     ...  NO (   0 nuclei,    0 pairs)

Choice of magnetic origin               ... GIAO
Position of magnetic origin             ...     0.000000     0.000000     0.000000

Properties with geometric perturbations:
SCF Hessian                             ...  NO
IR spectrum                             ...  NO
VCD spectrum                            ...  NO
X-ray spectroscopy properties:
SCF XES/XAS/RIXS spectra                ...  NO


-------------
DIPOLE MOMENT
-------------

Method             : SCF
Type of density    : Electron Density
Multiplicity       :   1
Irrep              :   0
Energy             :  -114.4162018770232123 Eh
Relativity type    : 
Basis              : AO
                                X                 Y                 Z
Electronic contribution:      1.284302677       0.000000284      -0.000029203
Nuclear contribution   :     -2.220467621      -0.000000096       0.000050506
                        -----------------------------------------
Total Dipole Moment    :     -0.936164945       0.000000188       0.000021303
                        -----------------------------------------
Magnitude (a.u.)       :      0.936164945
Magnitude (Debye)      :      2.379542185



--------------------
Rotational spectrum 
--------------------
 
Rotational constants in cm-1:             9.512746             1.304810             1.147424 
Rotational constants in MHz :        285184.948015         39117.227378         34398.919597 

Dipole components along the rotational axes: 
x,y,z [a.u.] :    -0.936165    -0.000000     0.000000 
x,y,z [Debye]:    -2.379542    -0.000001     0.000000 

 

Dipole moment calculation done in   0.0 sec 

Maximum memory used throughout the entire PROP-calculation: 8.4 MB

--------------------------------
SUGGESTED CITATIONS FOR THIS RUN
--------------------------------

Below you find a list of papers that are relevant to this ORCA run
We neither can nor want to force you to cite these papers, but we appreciate if you do
You receive ORCA, which is the product of decades of hard work by many enthusiastic individuals, for free
The only thing we kindly ask in return is that you cite our papers,
We deeply appreciate it, if you show your appreciation for ORCA by not just citing the generic ORCA reference.

Please note that relegating all ORCA citations to the supporting information does *not* help us.
SI sections are not indexed - citations you put there will not count into any citation statistics
But we need these citations in order to attract the funding resources that allow us to do what we are doing

Therefore, if you are a happy ORCA user, please consider citing a few of the papers listed below in the main body of your paper

In addition to the list printed below, the program has created the file H2CO.bibtex that contains the list in bibtex format
You can import this file easily into all common literature databanks and citation aid programs


List of essential papers. We consider these as the minimum necessary citations

  1. Neese,F.
     Software update: the ORCA program system, version 5.0
     WIRES Comput. Molec. Sci., 2022 12(1)e1606
     doi.org/10.1002/wcms.1606

List of papers to cite with high priority. The work reported in these papers was absolutely
necessary for this run to complete.
Our perspective: the developers of density functionals and basis sets usually get cited in chemistry papers
Good! But without the algorithms to do something with them, the functionals or basis sets would not do anything.
Hence, in our opinion, the algorithm design and method developments papers are equally worthy of getting cited

  1. Neese,F.; Olbrich,G.
     Efficient use of the resolution of the identity approximation in time-dependent density functional calculations with hybrid density functionals
     Chem. Phys. Lett., 2002 362 170-178
     doi.org/10.1016/s0009-2614(02)01053-9
  2. Neese,F.
     An improvement of the resolution of the identity approximation for the formation of the Coulomb matrix
     J. Comp. Chem., 2003 24(14)1740-1747
     doi.org/10.1002/jcc.10318
  3. Neese,F.; Wennmohs,F.; Hansen,A.; Becker,U.
     Efficient, approximate and parallel Hartree-Fock and hybrid DFT calculations. A 'chain-of-spheres' algorithm for the Hartree-Fock exchange
     Chem. Phys., 2009 356(1-3)98-109
     doi.org/10.1016/j.chemphys.2008.10.036
  4. Helmich-Paris,B.; de Souza,B.; Neese,F.; Izsák,R.
     An improved chain of spheres for exchange algorithm
     J. Chem. Phys., 2021 155 104109
     doi.org/doi: 10.1063/5.0058766.
  5. Neese,F.
     The SHARK Integral Generation and Digestion System
     J. Comp. Chem., 2022  1-16
     doi.org/10.1002/jcc.26942

List of suggested additional citations. These are papers that are important in the 'surrounding' of 
of this run, or papers that preceded the highly important papers. If you like your results we are grateful for a citation.

  1. Izsak,R.; Neese,F.
     An overlap fitted chain of spheres exchange method
     J. Chem. Phys., 2011 135 144105
     doi.org/10.1063/1.3646921
  2. Izsak,R.; Hansen,A.; Neese,F.
     The resolution of identity and chain of spheres approximations for the LPNO-CCSD singles Fock term
     Molec. Phys., 2012 110 2413-2417
     doi.org/10.1080/00268976.2012.687466
  3. Neese,F.
     The ORCA program system
     WIRES Comput. Molec. Sci., 2012 2(1)73-78
     doi.org/10.1002/wcms.81
  4. Izsak,R.; Neese,F.; Klopper,W.
     Robust fitting techniques in the chain of spheres approximation to the Fock exchange: The role of the complementary space
     J. Chem. Phys., 2013 139 
     doi.org/10.1063/1.4819264
  5. Neese,F.
     Software update: the ORCA program system, version 4.0
     WIRES Comput. Molec. Sci., 2018 8(1)1-6
     doi.org/10.1002/wcms.1327
  6. Neese,F.; Wennmohs,F.; Becker,U.; Riplinger,C.
     The ORCA quantum chemistry program package
     J. Chem. Phys., 2020 152 Art. No. L224108
     doi.org/10.1063/5.0004608

List of optional additional citations

  1. Neese,F.
     Approximate second-order SCF convergence for spin unrestricted wavefunctions
     Chem. Phys. Lett., 2000 325(1-3)93-98
     doi.org/10.1016/s0009-2614(00)00662-x

Timings for individual modules:

Sum of individual times          ...       15.245 sec (=   0.254 min)
Startup calculation              ...        0.413 sec (=   0.007 min)   2.7 %
SCF iterations                   ...        3.229 sec (=   0.054 min)  21.2 %
Property integrals               ...        0.040 sec (=   0.001 min)   0.3 %
Property calculations            ...        0.035 sec (=   0.001 min)   0.2 %
CIS module                       ...       11.530 sec (=   0.192 min)  75.6 %
                             ****ORCA TERMINATED NORMALLY****
TOTAL RUN TIME: 0 days 0 hours 0 minutes 15 seconds 291 msec
