[Molden Format]
[Title]
 Molden file created by orca_2mkl for BaseName=H2CO_m

[Atoms] AU
C    1   6         -0.8096412803        -2.0238191495         0.0000191172 
O    2   8          1.4568515318        -2.0238191670        -0.0000323995 
H    3   1         -1.9218719901        -0.2520828652         0.0000076364 
H    4   1         -1.9218723778        -3.7955556610         0.0000812350 
[GTO]
  1 0
s   8 1.0 
     8236.0000000000         0.3342267437
     1235.0000000000         0.6230746416
      280.8000000000         1.0531059072
       79.2700000000         1.5831631342
       25.5900000000         1.9450988312
        8.9970000000         1.6429469100
        3.3190000000         0.6196591261
        0.3643000000        -0.0030667276
s   8 1.0 
     8236.0000000000        -0.1210101098
     1235.0000000000        -0.2265691066
      280.8000000000        -0.3857532897
       79.2700000000        -0.5967016836
       25.5900000000        -0.7858351262
        8.9970000000        -0.8165330321
        3.3190000000        -0.5188700868
        0.3643000000         0.3477346660
s   1 1.0 
        0.9059000000         0.6617901318
s   1 1.0 
        0.1285000000         0.1529633682
s   1 1.0 
        0.0440200000         0.0684932259
p   3 1.0 
       18.7100000000         2.1868515589
        4.1330000000         2.0503123413
        1.2000000000         1.4599445297
p   1 1.0 
        0.3827000000         0.4290551959
p   1 1.0 
        0.1209000000         0.1016185431
p   1 1.0 
        0.0356900000         0.0221117580
d   1 1.0 
        1.0970000000         3.3522135855
d   1 1.0 
        0.3180000000         0.3838994974
d   1 1.0 
        0.1000000000         0.0506955785
f   1 1.0 
        0.7610000000         3.0840084332
f   1 1.0 
        0.2680000000         0.2946479106

  2 0
s   8 1.0 
    15330.0000000000         0.5107820689
     2299.0000000000         0.9520320559
      522.4000000000         1.6143309227
      147.3000000000         2.4433650471
       47.5500000000         3.0486061870
       16.7600000000         2.6183461361
        6.2070000000         1.0052339944
        0.6882000000        -0.0044964733
s   8 1.0 
    15330.0000000000        -0.1936657939
     2299.0000000000        -0.3632249960
      522.4000000000        -0.6192189910
      147.3000000000        -0.9677187516
       47.5500000000        -1.2940243602
       16.7600000000        -1.3817163263
        6.2070000000        -0.8447542687
        0.6882000000         0.5573175589
s   1 1.0 
        1.7520000000         1.0853271534
s   1 1.0 
        0.2384000000         0.2431586819
s   1 1.0 
        0.0737600000         0.1008731942
p   3 1.0 
       34.4600000000         4.8988750613
        7.7490000000         4.7502609215
        2.2800000000         3.2044979545
p   1 1.0 
        0.7156000000         0.9381623559
p   1 1.0 
        0.2140000000         0.2074709543
p   1 1.0 
        0.0597400000         0.0420989836
d   1 1.0 
        2.3140000000        12.3767310624
d   1 1.0 
        0.6450000000         1.3234257612
d   1 1.0 
        0.2140000000         0.1919526830
f   1 1.0 
        1.4280000000        12.7097950062
f   1 1.0 
        0.5000000000         1.1986229503

  3 0
s   3 1.0 
       33.8700000000         0.2551080577
        5.0950000000         0.4600978881
        1.1590000000         0.6784140671
s   1 1.0 
        0.3258000000         0.3073430538
s   1 1.0 
        0.1027000000         0.1292968442
s   1 1.0 
        0.0252600000         0.0451580419
p   1 1.0 
        1.4070000000         2.1842769845
p   1 1.0 
        0.3880000000         0.4364954740
p   1 1.0 
        0.1020000000         0.0821656514
d   1 1.0 
        1.0570000000         3.1412413909
d   1 1.0 
        0.2470000000         0.2467117034

  4 0
s   3 1.0 
       33.8700000000         0.2551080577
        5.0950000000         0.4600978881
        1.1590000000         0.6784140671
s   1 1.0 
        0.3258000000         0.3073430538
s   1 1.0 
        0.1027000000         0.1292968442
s   1 1.0 
        0.0252600000         0.0451580419
p   1 1.0 
        1.4070000000         2.1842769845
p   1 1.0 
        0.3880000000         0.4364954740
p   1 1.0 
        0.1020000000         0.0821656514
d   1 1.0 
        1.0570000000         3.1412413909
d   1 1.0 
        0.2470000000         0.2467117034

[5D]
[7F]
[9G]
[MO]
 Sym=     1a
 Ene= -1.96897203114620E+01
 Spin= Alpha
 Occup= 1.000000
  1       0.0009463319809271
  2       0.0020912815390198
  3       0.0013828925280820
  4      -0.0044946614099263
  5       0.0003275530366622
  6       0.0004839937814549
  7       0.0000000155360384
  8      -0.0000000113236512
  9       0.0026311725499852
 10      -0.0000002054739133
 11      -0.0000000495818113
 12      -0.0009181788111158
 13      -0.0000010453139363
 14      -0.0000000005361682
 15       0.0000570056019482
 16       0.0000000131260604
 17      -0.0000000042677227
 18      -0.0001753778375079
 19      -0.0000000157927587
 20      -0.0000000030981934
 21       0.0003816017436219
 22       0.0000000074916168
 23       0.0012162570748976
 24       0.0000001052942165
 25       0.0000000435965082
 26      -0.0013678271359532
 27       0.0000001295922737
 28       0.0004188102618987
 29       0.0000000946905663
 30      -0.0000000332615399
 31      -0.0029129398258205
 32       0.0000002910960259
 33      -0.0000000084848627
 34       0.0001701224990120
 35       0.0000000119593643
 36       0.0000000261293819
 37      -0.0000000139618952
 38       0.0006759687480865
 39       0.0000000521812595
 40       0.0000000120776037
 41      -0.0001562861745417
 42       0.0000000238485604
 43       0.0000000481279998
 44      -0.0000000311219741
 45       0.0012272086126097
 46       0.0000001922435721
 47       0.9718164881311739
 48      -0.0021977840875781
 49       0.0507952302807048
 50       0.0044305674514518
 51       0.0002156026547878
 52      -0.0018085988808639
 53      -0.0000004421094361
 54       0.0000000450880091
 55       0.0005072512242509
 56       0.0000001823913429
 57      -0.0000000194359916
 58       0.0028707930815696
 59       0.0000000437096834
 60      -0.0000000945789333
 61       0.0002789367580169
 62      -0.0000000598620735
 63      -0.0000000101075770
 64      -0.0004366786327931
 65      -0.0000000147933394
 66      -0.0000000148827231
 67      -0.0001522143189426
 68      -0.0000001314536512
 69       0.0006679771438323
 70       0.0000000446811216
 71       0.0000000078257920
 72      -0.0005666367006885
 73      -0.0000000282259108
 74       0.0011646568926513
 75       0.0000000886413496
 76       0.0000000110697721
 77      -0.0011992524923186
 78      -0.0000000388297324
 79      -0.0000000054701698
 80       0.0000428055986712
 81      -0.0000000041079180
 82       0.0000000013093775
 83      -0.0000000002854751
 84       0.0000007153600791
 85      -0.0000000176835989
 86       0.0000000391848818
 87      -0.0006261173615730
 88       0.0000000063795227
 89      -0.0000000356449709
 90      -0.0000000058364768
 91      -0.0003291722608805
 92       0.0000000054313715
 93       0.0002645238474359
 94       0.0021234537013066
 95      -0.0006633250102790
 96      -0.0000305102017065
 97       0.0001338348193677
 98      -0.0001488761126652
 99      -0.0000000001277678
100      -0.0003097850170091
101      -0.0007188391850320
102       0.0000000254130952
103      -0.0012844867748730
104      -0.0010491796935207
105       0.0000000515603874
106       0.0000734508346428
107       0.0000000066154505
108      -0.0000000001256034
109      -0.0001494409938260
110      -0.0000421949647111
111       0.0000297012625378
112       0.0000000065759278
113      -0.0000000047176521
114      -0.0003139802627333
115       0.0001426088555889
116       0.0002645345433691
117       0.0021227804863248
118      -0.0006663056975724
119      -0.0000305210006221
120       0.0001338453969213
121       0.0001488756319972
122      -0.0000000079675981
123      -0.0003097118909916
124       0.0007184308449581
125       0.0000000182633902
126      -0.0012847146702954
127       0.0010482935150193
128       0.0000000424252048
129       0.0000734602776710
130       0.0000000087993418
131       0.0000000014906155
132      -0.0001493949710563
133       0.0000421999325888
134       0.0000297545230867
135       0.0000000250736893
136       0.0000000022658700
137      -0.0003138767566601
138      -0.0001426586934386
 Sym=     1a
 Ene= -1.06844217167064E+01
 Spin= Alpha
 Occup= 1.000000
  1      -0.9845352050740728
  2      -0.0214186019730241
  3      -0.0520036338050909
  4      -0.0331329663952912
  5      -0.0071901736182714
  6      -0.0015004578072762
  7      -0.0000000072231488
  8       0.0000000342810740
  9      -0.0029036141257421
 10       0.0000003528604625
 11       0.0000000440229866
 12       0.0059684337207527
 13       0.0000046000221735
 14      -0.0000001539448853
 15       0.0001708452373498
 16       0.0000000693962503
 17      -0.0000000090963649
 18       0.0027576273822792
 19       0.0000001364742037
 20       0.0000000709229139
 21      -0.0010961693781434
 22       0.0000000136723631
 23       0.0008618397857795
 24       0.0000000027625289
 25       0.0000001204907681
 26       0.0017267895992155
 27      -0.0000003951931952
 28       0.0001473355297025
 29      -0.0000001465902542
 30       0.0000001781799893
 31       0.0065533765050044
 32      -0.0000008875927385
 33      -0.0000000051316755
 34       0.0001788223192068
 35      -0.0000000027226789
 36       0.0000000741725637
 37      -0.0000000662639467
 38       0.0025880435539954
 39       0.0000000082209607
 40       0.0000000344258588
 41      -0.0006792336865273
 42      -0.0000001431927954
 43      -0.0000001012585744
 44       0.0000001022146147
 45      -0.0041601271537234
 46      -0.0000003106528641
 47      -0.0008032069154888
 48      -0.0020433775218369
 49      -0.0009724426919831
 50       0.0076227113417529
 51       0.0021454966281201
 52       0.0007540757233399
 53       0.0000000149015950
 54      -0.0000000159623002
 55      -0.0031115428414925
 56       0.0000000233273893
 57       0.0000000637356458
 58      -0.0128204237777833
 59      -0.0000005553001534
 60       0.0000002761367009
 61      -0.0008404845700150
 62       0.0000002345523576
 63       0.0000000239769153
 64       0.0000895475866319
 65       0.0000000071659857
 66       0.0000000017277862
 67      -0.0001382680065428
 68       0.0000000056987340
 69      -0.0020046165559430
 70      -0.0000001582975512
 71      -0.0000000077909379
 72       0.0033906274709768
 73       0.0000000402145535
 74      -0.0032387787396534
 75      -0.0000001999466236
 76      -0.0000000670620563
 77       0.0034289426211164
 78       0.0000002268269415
 79      -0.0000000083956479
 80       0.0001461869704442
 81      -0.0000000008757575
 82       0.0000000159770831
 83      -0.0000000080897063
 84       0.0003752675036484
 85       0.0000000051421884
 86      -0.0000000784864922
 87       0.0013434354138816
 88       0.0000000120558564
 89       0.0000000907725490
 90       0.0000000200409733
 91       0.0014755896149233
 92       0.0000000097828031
 93      -0.0005833291066273
 94       0.0055373120565748
 95       0.0168665233899891
 96       0.0009985744929662
 97       0.0005220565612183
 98      -0.0007036462864886
 99       0.0000000025675229
100       0.0030219252915203
101      -0.0047455653202934
102       0.0000000276102324
103       0.0055704921467310
104      -0.0019592420105285
105      -0.0000001104476845
106      -0.0007748824319944
107       0.0000000108712993
108      -0.0000000072552156
109      -0.0005823869353814
110      -0.0013323195477928
111      -0.0013351515491535
112      -0.0000000337162923
113      -0.0000000194142030
114       0.0000267362359133
115      -0.0008672094407402
116      -0.0005833609106583
117       0.0055392038388387
118       0.0168782501821619
119       0.0009988929974229
120       0.0005220666825090
121       0.0007036373434980
122      -0.0000000316241163
123       0.0030218981428408
124       0.0047462366660880
125      -0.0000001252090118
126       0.0055716521803346
127       0.0019624020289634
128      -0.0000001209088117
129      -0.0007748916751659
130      -0.0000000412718332
131      -0.0000000639304602
132      -0.0005823966035025
133       0.0013323315392348
134      -0.0013352017979631
135      -0.0000000338501044
136      -0.0000000622252244
137       0.0000264756994325
138       0.0008671400322581
 Sym=     1a
 Ene= -1.52177716100074E+00
 Spin= Alpha
 Occup= 1.000000
  1       0.0215368515617082
  2      -0.2190094604110262
  3      -0.0497389062103559
  4      -0.1199012844079860
  5      -0.0040730132826150
  6      -0.1057684186075334
  7       0.0000004547739155
  8       0.0000023666512039
  9      -0.0660757609621924
 10       0.0000054343539315
 11       0.0000014551954810
 12       0.0365418873384006
 13       0.0000569321881668
 14      -0.0000007850801259
 15       0.0021799996368823
 16       0.0000018530788446
 17      -0.0000000511303843
 18       0.0105426023864047
 19       0.0000007081805426
 20       0.0000000905391393
 21      -0.0141413479635707
 22       0.0000001508095718
 23       0.0220802505462659
 24       0.0000009107818826
 25       0.0000007815393567
 26      -0.0017556211626245
 27      -0.0000043661984213
 28       0.0000033639534190
 29      -0.0000005270035029
 30       0.0000004700474442
 31       0.0228769277106950
 32      -0.0000110913174973
 33      -0.0000001172409283
 34       0.0020546308995223
 35      -0.0000001085935476
 36       0.0000003168271342
 37      -0.0000001608126985
 38       0.0089767398387859
 39       0.0000000930229097
 40       0.0000000711822032
 41      -0.0014126408836816
 42      -0.0000016984647399
 43       0.0000001606824153
 44      -0.0000002323125188
 45       0.0071975165301880
 46      -0.0000033590003080
 47       0.0130039764284239
 48      -0.4859529071039942
 49      -0.1388889741615131
 50      -0.2435794795432643
 51      -0.0317073770759342
 52       0.0948778366428047
 53       0.0000096293244527
 54      -0.0000021939641035
 55       0.1149390644693686
 56       0.0000135277556380
 57      -0.0000026627134081
 58       0.0317097665611073
 59      -0.0000036386853372
 60      -0.0000007653016547
 61       0.0027021858761109
 62       0.0000011836717395
 63      -0.0000000611785315
 64       0.0053833844864710
 65       0.0000002643918032
 66       0.0000001256127087
 67      -0.0020389232045984
 68       0.0000008915667025
 69       0.0134526502725779
 70       0.0000007996656122
 71       0.0000001861723794
 72      -0.0115167461262531
 73       0.0000018810985977
 74      -0.0000361708591409
 75       0.0000000253287100
 76      -0.0000000040453280
 77      -0.0000428012452116
 78       0.0000028178312078
 79       0.0000001344653709
 80      -0.0024312447384989
 81      -0.0000000172196888
 82      -0.0000001380387984
 83      -0.0000000273208244
 84      -0.0017785457834305
 85       0.0000004011348558
 86       0.0000001341504053
 87      -0.0024350027854525
 88       0.0000001413107822
 89      -0.0000001706077057
 90       0.0000000008219648
 91      -0.0030228506484478
 92       0.0000001907715907
 93      -0.0112163559368496
 94       0.0299494576215848
 95       0.0566955327947933
 96       0.0015570876417675
 97      -0.0005944313873245
 98      -0.0005948631987275
 99       0.0000000144057507
100       0.0079604350121998
101      -0.0125374611847576
102       0.0000000908391319
103       0.0186208843335848
104      -0.0067195264081601
105      -0.0000002877357133
106      -0.0001498419755569
107       0.0000000375713634
108      -0.0000000015858170
109      -0.0014408059477281
110      -0.0007019635654971
111      -0.0015199724296790
112      -0.0000000084641627
113       0.0000000510146461
114       0.0005529581552327
115      -0.0035804553341871
116      -0.0112167931331634
117       0.0299731672990173
118       0.0568382494112623
119       0.0015621890269425
120      -0.0005943152276426
121       0.0005948532526289
122      -0.0000000023783187
123       0.0079611858296896
124       0.0125456116368412
125      -0.0000004541803781
126       0.0186346541174162
127       0.0067580037326693
128      -0.0000006303741100
129      -0.0001499782890498
130       0.0000000103603338
131      -0.0000000600014647
132      -0.0014408646031190
133       0.0007022051596330
134      -0.0015208752107197
135      -0.0000001573326052
136      -0.0000001485598297
137       0.0005496627954633
138       0.0035797007833853
 Sym=     1a
 Ene= -1.01555787450007E+00
 Spin= Alpha
 Occup= 1.000000
  1       0.0168608512925874
  2      -0.4087008835308408
  3      -0.1016401199418557
  4      -0.2378171849231644
  5      -0.0151376931424742
  6       0.0847272165714961
  7      -0.0000121951109984
  8      -0.0000020221485710
  9       0.0995445662527899
 10      -0.0000163604992553
 11      -0.0000023305920031
 12       0.0357560433912156
 13      -0.0000014447778978
 14      -0.0000007116745384
 15       0.0014067022959947
 16      -0.0000126264809798
 17      -0.0000000043500843
 18       0.0061137686111295
 19       0.0000001418171432
 20       0.0000003575956298
 21       0.0060501206755198
 22      -0.0000006392195547
 23       0.0161179466967970
 24       0.0000002541364252
 25       0.0000008923392504
 26       0.0158129328506629
 27      -0.0000024116797988
 28       0.0058177773271964
 29       0.0000007520987969
 30      -0.0000003022473994
 31      -0.0235488084073929
 32      -0.0000049963574578
 33       0.0000000686659754
 34      -0.0010517608264356
 35       0.0000003236781277
 36       0.0000000915633529
 37      -0.0000001374747591
 38       0.0042281077703737
 39       0.0000009961463708
 40       0.0000001727509225
 41      -0.0032225742462530
 42       0.0000005574299923
 43       0.0000000339604657
 44      -0.0000003064065670
 45       0.0073254724814958
 46       0.0000006890042439
 47       0.0025713719884930
 48       0.2371922066765788
 49       0.0722079749867089
 50       0.2141038482168289
 51       0.0289740078596404
 52       0.1101066256685260
 53      -0.0000283851989136
 54      -0.0000025392229078
 55       0.1264964068858993
 56      -0.0000357203873743
 57      -0.0000028923432612
 58       0.0515752704531278
 59      -0.0000113206398987
 60      -0.0000011544880559
 61      -0.0028571605257077
 62       0.0000079940225438
 63       0.0000000500732879
 64       0.0012581170356399
 65       0.0000001905733759
 66      -0.0000000489072678
 67      -0.0056383882731472
 68      -0.0000004158779173
 69       0.0028969425174645
 70       0.0000003785569733
 71      -0.0000001153741531
 72      -0.0113367888467960
 73      -0.0000006225258946
 74       0.0035666863972141
 75       0.0000002006515424
 76       0.0000000797221013
 77      -0.0030305448965057
 78      -0.0000018761539755
 79       0.0000000673943044
 80      -0.0011461951688901
 81       0.0000003661267176
 82      -0.0000000416184919
 83      -0.0000000325812174
 84       0.0000687887785682
 85       0.0000004723572675
 86       0.0000000219548260
 87      -0.0003775547713777
 88      -0.0000000528276421
 89      -0.0000000237259869
 90      -0.0000000160499461
 91       0.0000846643815442
 92      -0.0000003845077341
 93      -0.1066314803528540
 94      -0.1114665293828883
 95       0.0066647102320996
 96       0.0016860711715102
 97      -0.0045564310541494
 98       0.0095870351909227
 99      -0.0000001045137630
100      -0.0017431188147426
101       0.0124008449849894
102      -0.0000003105181284
103      -0.0100025583764009
104      -0.0133806437682350
105       0.0000004527929169
106       0.0013857046509986
107      -0.0000000114124306
108       0.0000000370110653
109       0.0018322062691747
110       0.0017708676581502
111       0.0000897097744751
112      -0.0000000728834804
113       0.0000000317789327
114       0.0013806692360936
115       0.0010022355942113
116      -0.1066198007111954
117      -0.1114517308408519
118       0.0066882205051543
119       0.0016614191728209
120      -0.0045557076644787
121      -0.0095863117889821
122       0.0000003035749597
123      -0.0017425934985715
124      -0.0124003347741324
125       0.0000002613355275
126      -0.0100035424899315
127       0.0133961873354687
128      -0.0000001486235785
129       0.0013857283607305
130       0.0000000497720819
131       0.0000001377689583
132       0.0018324464565899
133      -0.0017706764117038
134       0.0000896724138622
135      -0.0000000359966100
136       0.0000000496486343
137       0.0013793039109720
138      -0.0010025891373514
 Sym=     1a
 Ene= -9.08436820038201E-01
 Spin= Alpha
 Occup= 1.000000
  1       0.0000006325212369
  2      -0.0000296765374718
  3      -0.0000064257390390
  4      -0.0000829769234123
  5      -0.0000330422061217
  6       0.0000497196392015
  7       0.2113520811757534
  8      -0.0000042426521087
  9       0.0000518550632053
 10       0.2600429072217004
 11      -0.0000052090517372
 12       0.0000112900057350
 13       0.0278046307119290
 14      -0.0000004553894641
 15      -0.0000022596346457
 16      -0.0049394005888781
 17       0.0000001199421291
 18      -0.0000004923212545
 19      -0.0000001104068358
 20      -0.0000001376427772
 21       0.0000039888549121
 22       0.0065180841093142
 23       0.0000037293723952
 24       0.0000005271379061
 25       0.0000005137943812
 26       0.0000052386875399
 27      -0.0200259792137493
 28       0.0000058160479238
 29       0.0000006879758566
 30       0.0000007945463811
 31       0.0000163142463394
 32      -0.0334312147941531
 33       0.0000001564074106
 34      -0.0000008782683907
 35      -0.0032598483256391
 36      -0.0000000469777169
 37      -0.0000003047164615
 38      -0.0000009124215188
 39      -0.0066269078794238
 40       0.0000001208531802
 41      -0.0000000886699969
 42      -0.0026813960044926
 43       0.0000000474241871
 44      -0.0000002185278164
 45       0.0000049633007472
 46      -0.0030783710072287
 47      -0.0000006361480950
 48      -0.0000087196682738
 49      -0.0000032453506918
 50      -0.0000137768426395
 51       0.0000040113798179
 52      -0.0000516283138855
 53       0.2701634027415414
 54      -0.0000049784615549
 55      -0.0000612374475919
 56       0.3291700635328301
 57      -0.0000060621817330
 58      -0.0000291427370843
 59       0.1959636591316012
 60      -0.0000037734535088
 61       0.0000009233882693
 62       0.0122153085924939
 63      -0.0000002744873922
 64      -0.0000002059967440
 65       0.0000001683006510
 66       0.0000002060626045
 67       0.0000030393709551
 68      -0.0089701446273325
 69      -0.0000005493970591
 70       0.0000005365777050
 71       0.0000006382753728
 72       0.0000071851812938
 73      -0.0274512508149958
 74       0.0000002281615476
 75       0.0000005203282764
 76       0.0000005209596247
 77       0.0000018269381215
 78      -0.0225841238356349
 79       0.0000001244187019
 80       0.0000006923385197
 81      -0.0028282917887422
 82       0.0000000269756641
 83      -0.0000001646306279
 84      -0.0000007178568517
 85      -0.0022059193256650
 86       0.0000000791188574
 87       0.0000006172813144
 88      -0.0015866799360254
 89      -0.0000000618813698
 90      -0.0000001648830037
 91       0.0000004592823475
 92      -0.0037336005863833
 93       0.0908910951628045
 94       0.0911312676897723
 95       0.0122154754269898
 96       0.0033896817838391
 97       0.0070937638194898
 98      -0.0060629887890382
 99      -0.0000000248672248
100       0.0074843484402721
101       0.0086064657959475
102      -0.0000003444811266
103       0.0162206595202584
104       0.0013892943541631
105      -0.0000004823876576
106      -0.0011605307925851
107      -0.0000000257655634
108       0.0000000635438091
109       0.0017284784482628
110      -0.0030693374602897
111       0.0012862535194368
112      -0.0000000550448126
113       0.0000000752693543
114       0.0023955111142692
115       0.0022320497809155
116      -0.0909322528715461
117      -0.0911652681315634
118      -0.0121582734659056
119      -0.0033778981684539
120      -0.0070952195116606
121      -0.0060674179628519
122       0.0000002818999285
123      -0.0074819549425046
124       0.0086019430924050
125       0.0000000452160630
126      -0.0161947151030242
127       0.0013813018058540
128       0.0000003408964364
129       0.0011609553098890
130       0.0000001500527376
131       0.0000000757044203
132      -0.0017271736364445
133      -0.0030699289975417
134      -0.0012841154824792
135      -0.0000000233873685
136      -0.0000001228138764
137      -0.0023936484842365
138       0.0022327024327014
 Sym=     1a
 Ene= -8.62787680202650E-01
 Spin= Alpha
 Occup= 1.000000
  1       0.0003197804702482
  2       0.0045590750065135
  3       0.0056025718734843
  4      -0.1235163727665065
  5      -0.0019153009381157
  6       0.2173757187768584
  7      -0.0000556317614146
  8      -0.0000049705316232
  9       0.2279476626951472
 10      -0.0000672042537192
 11      -0.0000053722823457
 12       0.0594275285523914
 13      -0.0000123912234000
 14      -0.0000014189909407
 15      -0.0018417190611309
 16      -0.0000116181961329
 17       0.0000000167865516
 18      -0.0037043307337862
 19      -0.0000005764233885
 20       0.0000001964270499
 21       0.0156716692404912
 22       0.0000007619177885
 23       0.0028872695460807
 24      -0.0000001088304592
 25       0.0000002947424270
 26       0.0088041771749927
 27       0.0000066715735568
 28       0.0031521593682199
 29      -0.0000001439658525
 30       0.0000003357821991
 31       0.0117187625304404
 32      -0.0000004439446937
 33       0.0000001934773093
 34      -0.0036505833303529
 35       0.0000006610650379
 36      -0.0000003165510308
 37       0.0000000130931476
 38      -0.0055158479536363
 39       0.0000011630968197
 40      -0.0000000844031644
 41       0.0016537243268164
 42       0.0000007902492121
 43       0.0000005696999743
 44      -0.0000004024300070
 45       0.0183195008026840
 46       0.0000004171142773
 47      -0.0016723523155367
 48      -0.1798016468832713
 49      -0.0554503264034338
 50      -0.2114367623823870
 51      -0.0301951680688780
 52      -0.3052275112326738
 53      -0.0000238350511398
 54       0.0000068246161648
 55      -0.3575359510769432
 56      -0.0000275466211805
 57       0.0000080213455199
 58      -0.1565583256827464
 59      -0.0000204247419980
 60       0.0000035579424409
 61       0.0019088231310664
 62       0.0000030366573532
 63      -0.0000000193878579
 64      -0.0049825876048720
 65      -0.0000004440016701
 66       0.0000000544633270
 67       0.0115788063848767
 68       0.0000034350494606
 69      -0.0097123532998764
 70      -0.0000010209341961
 71       0.0000001627545732
 72       0.0261697288952503
 73       0.0000091065685872
 74       0.0001854314947979
 75      -0.0000001673972155
 76       0.0000001407983273
 77       0.0068624919867919
 78       0.0000054483729146
 79      -0.0000001483159431
 80       0.0026281709569374
 81       0.0000001443748827
 82       0.0000001015121888
 83       0.0000000666409089
 84       0.0001596725539659
 85      -0.0000002979843375
 86      -0.0000001687152534
 87       0.0025893504702211
 88       0.0000001094509853
 89       0.0000002204725998
 90      -0.0000000106089587
 91       0.0034653838977441
 92       0.0000005324675914
 93      -0.0698099720873406
 94      -0.0824516365293051
 95       0.0138516767749180
 96      -0.0001606658806475
 97      -0.0015359041011414
 98       0.0076685239561090
 99      -0.0000001500554621
100      -0.0006732918134499
101       0.0127197744547622
102      -0.0000002753550798
103       0.0078337369939028
104      -0.0009339298643227
105      -0.0000001141292609
106       0.0006425994997131
107      -0.0000000739912173
108       0.0000001163616982
109       0.0028872791687738
110       0.0009700512386597
111       0.0049350424183308
112       0.0000002788614060
113       0.0000001551630008
114      -0.0020190656611736
115      -0.0017536261521651
116      -0.0697536172089587
117      -0.0823823292721748
118       0.0138732666537176
119      -0.0001895808958821
120      -0.0015323282431415
121      -0.0076648414795346
122       0.0000001809021131
123      -0.0006683331666042
124      -0.0127207773617769
125       0.0000002592414580
126       0.0078341507934413
127       0.0009434684579116
128      -0.0000002601901620
129       0.0006419683487818
130      -0.0000000326532018
131       0.0000000692616733
132       0.0028879590363019
133      -0.0009684616137216
134       0.0049351649927393
135       0.0000001930773994
136       0.0000000904243060
137      -0.0020193235071316
138       0.0017530483601290
 Sym=     1a
 Ene= -8.07739565468252E-01
 Spin= Alpha
 Occup= 1.000000
  1       0.0000000005195037
  2       0.0000001051369197
  3       0.0000000539250221
  4       0.0000000646759557
  5       0.0000005015570890
  6      -0.0000038949706585
  7      -0.0000028639581713
  8      -0.1688294445474318
  9      -0.0000049435611161
 10      -0.0000039568745267
 11      -0.2095227428649438
 12      -0.0000015701822927
 13      -0.0000021610955221
 14      -0.0653525403288855
 15      -0.0000001002363928
 16       0.0000002884364758
 17      -0.0000301716728112
 18       0.0000007775530262
 19      -0.0202713225983682
 20       0.0000001784086940
 21      -0.0000004876244139
 22      -0.0000004467773491
 23       0.0000012508704378
 24      -0.0299839527719398
 25       0.0000004111720113
 26      -0.0000002951436739
 27      -0.0000002630042753
 28      -0.0000004197704337
 29       0.0121174731592752
 30       0.0000001662562005
 31       0.0000010186851908
 32       0.0000005311775701
 33       0.0056077146120570
 34       0.0000005062091890
 35       0.0000001184958385
 36      -0.0054163598870377
 37       0.0000000321428857