[Molden Format]
[Title]
 Molden file created by orca_2mkl for BaseName=H2CO

[Atoms] AU
C    1   6         -0.8097514278        -2.0238192107         0.0000188973 
O    2   8          1.4555369882        -2.0238192107        -0.0000056692 
H    3   1         -1.9211598384        -0.2496781757        -0.0000056692 
H    4   1         -1.9211598384        -3.7979602456         0.0000680301 
[GTO]
  1 0
s   6 1.0 
    13575.3496820000         0.5435905310
     2035.2333680000         1.0145543947
      463.2256235900         1.7315731970
      131.2001959800         2.6910376290
       42.8530158910         3.6044547126
       15.5841857660         3.7025556986
s   2 1.0 
        6.2067138508         1.8383540830
        2.5764896527         0.5447575605
s   1 1.0 
        0.5769633942         0.4718145038
s   1 1.0 
        0.2297283136         0.2364944676
s   1 1.0 
        0.0951644400         0.1221141848
p   4 1.0 
       34.6972322440         1.3596651507
        7.9582622826         1.4512589486
        2.3780826883         1.2709231419
        0.8143320818         0.8025721189
p   1 1.0 
        0.2888754725         0.3018758868
p   1 1.0 
        0.1005682367         0.0807265016
d   1 1.0 
        1.0970000000         3.3522135855
d   1 1.0 
        0.3180000000         0.3838994974
f   1 1.0 
        0.7610000000         3.0840084332

  2 0
s   6 1.0 
    27032.3826310000         0.8598581479
     4052.3871392000         1.6055305368
      922.3272271000         2.7458778516
      261.2407098900         4.2987674426
       85.3546413510         5.8797663284
       31.0350352450         6.3163983216
s   2 1.0 
       12.2608607280         2.9812147522
        4.9987076005         0.9419559635
s   1 1.0 
        1.1703108158         0.8019291610
s   1 1.0 
        0.4647474099         0.4011648062
s   1 1.0 
        0.1850453636         0.2010799406
p   4 1.0 
       63.2749548010         3.0572017144
       14.6270493790         3.3844839414
        4.4501223456         2.9474262132
        1.5275799647         1.7118271494
p   1 1.0 
        0.5293511794         0.6436057926
p   1 1.0 
        0.1747842127         0.1610897254
d   1 1.0 
        2.3140000000        12.3767310624
d   1 1.0 
        0.6450000000         1.3234257612
f   1 1.0 
        1.4280000000        12.7097950062

  3 0
s   3 1.0 
       34.0613410000         0.2556299169
        5.1235746000         0.4613599649
        1.1646626000         0.6811214941
s   1 1.0 
        0.3272304100         0.3083545312
s   1 1.0 
        0.1030724100         0.1296483265
p   1 1.0 
        0.8000000000         1.0784563492

  4 0
s   3 1.0 
       34.0613410000         0.2556299169
        5.1235746000         0.4613599649
        1.1646626000         0.6811214941
s   1 1.0 
        0.3272304100         0.3083545312
s   1 1.0 
        0.1030724100         0.1296483265
p   1 1.0 
        0.8000000000         1.0784563492

[5D]
[7F]
[9G]
[MO]
 Sym=     1a
 Ene= -1.91466041733974E+01
 Spin= Alpha
 Occup= 2.000000
  1      -0.0000229083463205
  2       0.0001589009839300
  3      -0.0009897951464251
  4      -0.0031770270696278
  5       0.0030743967617792
  6      -0.0008338105900806
  7       0.0000000000233556
  8       0.0000000091610486
  9      -0.0059698594022670
 10      -0.0000000000899079
 11       0.0000000649456126
 12       0.0018842981563537
 13       0.0000000001628915
 14      -0.0000000203127326
 15       0.0002116416439462
 16       0.0000000076265557
 17       0.0000000005221544
 18      -0.0003399322649458
 19       0.0000000000433853
 20       0.0004708757593867
 21       0.0000000358554090
 22      -0.0000000349200683
 23      -0.0024964288962971
 24       0.0000000000223690
 25      -0.0000000019906420
 26       0.0000741982719805
 27      -0.0000000000240202
 28      -0.0000000047202584
 29       0.0000000137816884
 30      -0.0004473314744485
 31      -0.0000000000155194
 32      -0.4350626230235153
 33      -0.6396499651172639
 34      -0.0351576809691844
 35       0.0254823831193771
 36      -0.0083311883534272
 37       0.0022072767426347
 38       0.0000000000369264
 39      -0.0000000237992402
 40      -0.0050167686176677
 41      -0.0000000000457169
 42       0.0000000545146385
 43       0.0007053427447191
 44      -0.0000000000239672
 45      -0.0000000076620165
 46       0.0001279427283949
 47       0.0000000059694830
 48      -0.0000000022624131
 49      -0.0003307756181399
 50      -0.0000000000025891
 51      -0.0005669481846094
 52      -0.0000000239342823
 53       0.0000000049362674
 54       0.0012187673297841
 55      -0.0000000000017233
 56      -0.0000000035886587
 57       0.0001348543642282
 58       0.0000000000081219
 59       0.0000000041925836
 60       0.0000000008229017
 61       0.0001411597544885
 62      -0.0000000000063453
 63      -0.0002834812173723
 64      -0.0012223483343264
 65       0.0001205465343798
 66      -0.0002134581648661
 67       0.0001910816320398
 68      -0.0000000016103252
 69      -0.0002834812386651
 70      -0.0012223483014568
 71       0.0001205466681270
 72      -0.0002134582117775
 73      -0.0001910816557447
 74       0.0000000063787413
 Sym=     1a
 Ene= -1.02723784539589E+01
 Spin= Alpha
 Occup= 2.000000
  1      -0.4668000759952322
  2      -0.6085608751842211
  3      -0.0348967421691256
  4       0.0075158162552073
  5      -0.0105398831169063
  6      -0.0018006861622292
  7       0.0000000000328613
  8       0.0000000195778265
  9      -0.0066594054286076
 10      -0.0000000000139825
 11       0.0000000716553150
 12       0.0016240435959787
 13       0.0000000000156671
 14      -0.0000000177827734
 15       0.0017794178716132
 16       0.0000000498715338
 17       0.0000000328527141
 18      -0.0015040025983688
 19       0.0000000000078511
 20       0.0025629858690428
 21       0.0000000735398433
 22       0.0000000436158394
 23      -0.0023378847577684
 24       0.0000000001978433
 25      -0.0000000138060969
 26       0.0005288919056420
 27       0.0000000000009952
 28       0.0000000404064357
 29      -0.0000000424494592
 30       0.0023523282457451
 31      -0.0000000000130094
 32       0.0000900360029568
 33       0.0002737881393858
 34      -0.0027477681471450
 35       0.0102562129439390
 36       0.0034868210564131
 37       0.0006477959957197
 38       0.0000000000338490
 39      -0.0000000070156993
 40      -0.0078775249154687
 41      -0.0000000000117514
 42       0.0000000855658450
 43      -0.0004199368026265
 44      -0.0000000001370883
 45       0.0000000046030617
 46      -0.0000182738705853
 47      -0.0000000003756938
 48      -0.0000000005552354
 49       0.0000061246266962
 50      -0.0000000001833193
 51      -0.0015152238159895
 52      -0.0000000589491335
 53       0.0000000036088687
 54       0.0027979857527219
 55       0.0000000001580137
 56      -0.0000000086470472
 57       0.0003253556862696
 58       0.0000000000082817
 59       0.0000000133382163
 60      -0.0000000041461020
 61       0.0005831283773984
 62       0.0000000000119696
 63       0.0006350815613942
 64       0.0012323736709702
 65       0.0027724444406297
 66       0.0010967008216790
 67      -0.0017955856394851
 68       0.0000000251675128
 69       0.0006350815025669
 70       0.0012323734318668
 71       0.0027724445291902
 72       0.0010967008164587
 73       0.0017955855920838
 74      -0.0000000494137369
 Sym=     1a
 Ene= -1.06927030039114E+00
 Spin= Alpha
 Occup= 2.000000
  1      -0.0566049669769100
  2      -0.1185462154745876
  3       0.1901937674014966
  4       0.1319001758948138
  5       0.0095619184162852
  6       0.1444626612129747
  7       0.0000000007868867
  8      -0.0000015655582525
  9       0.0539035470440137
 10      -0.0000000123295340
 11      -0.0000005823296243
 12       0.0038940963503252
 13      -0.0000000095789512
 14      -0.0000000428215630
 15      -0.0117996701033858
 16      -0.0000004207551095
 17      -0.0000000438855345
 18       0.0183278100680296
 19      -0.0000000001975595
 20      -0.0069883934214520
 21      -0.0000002213953703
 22      -0.0000000773759094
 23       0.0083713795587491
 24       0.0000000061585922
 25       0.0000000960091320
 26      -0.0036330917498244
 27       0.0000000014137644
 28      -0.0000001860768615
 29       0.0000001171275126
 30      -0.0092990248460375
 31       0.0000000003852423
 32      -0.0907928233049387
 33      -0.2132866770082349
 34       0.3145140433995881
 35       0.3831622123893964
 36       0.1197894929452919
 37      -0.1262787644656189
 38      -0.0000000011043365
 39       0.0000013703200306
 40      -0.0868351235929518
 41      -0.0000000017744985
 42       0.0000009418639833
 43      -0.0097781821142070
 44       0.0000000042385949
 45       0.0000001065618232
 46      -0.0030767761549825
 47      -0.0000001315429914
 48       0.0000000296781093
 49       0.0067502043141200
 50       0.0000000026896689
 51      -0.0041884702376740
 52      -0.0000002099512966
 53       0.0000001018576263
 54       0.0121674514244703
 55      -0.0000000021289548
 56      -0.0000000376317426
 57       0.0014171943775325
 58      -0.0000000000888487
 59       0.0000000566112834
 60      -0.0000000153965559
 61       0.0024344404281950
 62      -0.0000000001491858
 63       0.0138659475710211
 64       0.0098182561039651
 65       0.0010924702602501
 66       0.0023569970268309
 67      -0.0005526064128054
 68      -0.0000000139070531
 69       0.0138659475003775
 70       0.0098182304951722
 71       0.0010924635550544
 72       0.0023569939170119
 73       0.0005526018158449
 74      -0.0000000373893356
 Sym=     1a
 Ene= -6.39029871188083E-01
 Spin= Alpha
 Occup= 2.000000
  1      -0.0802639416444687
  2      -0.1713867667907088
  3       0.2840480166417984
  4       0.3265597233757402
  5       0.0771564256860353
  6      -0.1583189105442543
  7      -0.0000000038055706
  8       0.0000017361602473
  9      -0.0929353006470925
 10       0.0000000134381075
 11       0.0000010211228326
 12      -0.0354478075223629
 13      -0.0000000341413890
 14       0.0000003877626304
 15      -0.0057387011653170
 16      -0.0000000152967847
 17      -0.0000003851246450
 18      -0.0086167279404193
 19      -0.0000000016116698
 20      -0.0028886079755396
 21      -0.0000000662165744
 22      -0.0000000809094564
 23       0.0011607931234782
 24      -0.0000000222959785
 25      -0.0000000388645365
 26       0.0014200249758932
 27      -0.0000000012297174
 28      -0.0000000379876054
 29       0.0000001661930325
 30      -0.0047026990433739
 31       0.0000000022286015
 32       0.0404993374840824
 33       0.0962623365113024
 34      -0.1480593483544967
 35      -0.2089749314326946
 36      -0.1320403412258094
 37      -0.0788420479099542
 38      -0.0000000018656027
 39       0.0000008602594984
 40      -0.0530680039354374
 41       0.0000000042362261
 42       0.0000005791020907
 43      -0.0230965095778147
 44       0.0000000150352259
 45       0.0000002497162231
 46      -0.0011406471019190
 47      -0.0000000397424662
 48      -0.0000000136594339
 49       0.0013169709234010
 50       0.0000000168674934
 51      -0.0039346167705563
 52      -0.0000001015096933
 53      -0.0000000844193750
 54       0.0027443475209621
 55      -0.0000000147157146
 56      -0.0000000135748183
 57       0.0005170971203585
 58      -0.0000000001434506
 59       0.0000000142745420
 60       0.0000000067172136
 61       0.0004018436968692
 62      -0.0000000007794387
 63       0.1119277683920630
 64       0.1357685952783195
 65       0.0231627317304173
 66       0.0065028090173920
 67      -0.0161403293755477
 68       0.0000002633590334
 69       0.1119277706907745
 70       0.1357686442178097
 71       0.0231626601808892
 72       0.0065028107618850
 73       0.0161403384935167
 74      -0.0000004074684056
 Sym=     1a
 Ene= -5.01973735472460E-01
 Spin= Alpha
 Occup= 2.000000
  1      -0.0000000011343724
  2      -0.0000000030912972
  3       0.0000000037778535
  4       0.0000000618314908
  5       0.0000000019659743
  6       0.0000000089643054
  7       0.3254075479080703
  8      -0.0000067605199707
  9      -0.0000000078434368
 10       0.2175852826652359
 11      -0.0000045208695758
 12       0.0000000062596857
 13       0.0728204289924646
 14      -0.0000015145863243
 15      -0.0000000017335352
 16       0.0000000538599997
 17       0.0000000303246833
 18       0.0000000016826819
 19      -0.0025784870333454
 20      -0.0000000080833457
 21      -0.0000001501752448
 22      -0.0000000760519259
 23      -0.0000000123269029
 24       0.0071491783643194
 25       0.0000000942344326
 26       0.0000000037504354
 27      -0.0018485162124401
 28      -0.0000000397197073
 29      -0.0000000841274910
 30      -0.0000000012158979
 31      -0.0039432494240015
 32       0.0000000010591766
 33       0.0000000024608283
 34      -0.0000000059499074
 35       0.0000000152445239
 36      -0.0000000505977452
 37      -0.0000000094383877
 38       0.2186094679391787
 39      -0.0000045418348869
 40      -0.0000000030512833
 41       0.1750688500156398
 42      -0.0000036373603156
 43       0.0000000205795362
 44       0.0783816568417178
 45      -0.0000016271651045
 46      -0.0000000064742752
 47       0.0000001536537195
 48       0.0000000816188761
 49       0.0000000138600201
 50      -0.0073369345271927
 51       0.0000000068033237
 52       0.0000004100425913
 53       0.0000002139833197
 54      -0.0000000116522705
 55      -0.0197954043232187
 56       0.0000000168094597
 57      -0.0000000004132120
 58      -0.0003303505172848
 59      -0.0000001128230672
 60      -0.0000000702103763
 61      -0.0000000006627816
 62      -0.0048615459755589
 63       0.1198034374600782
 64       0.1666339549374668
 65       0.0514687072804449
 66       0.0131840131763450
 67      -0.0107322000185107
 68       0.0000000772967901
 69      -0.1198034358779170
 70      -0.1666340187845078
 71      -0.0514686877309144
 72      -0.0131840221443857
 73      -0.0107322100400508
 74       0.0000003682661728
 Sym=     1a
 Ene= -4.58919581894735E-01
 Spin= Alpha
 Occup= 2.000000
  1      -0.0144997868297726
  2      -0.0320954722627315
  3       0.0633730359421726
  4       0.0449943601012220
  5      -0.0739753005979646
  6       0.2718946808425583
  7      -0.0000000093472163
  8      -0.0000029837313321
  9       0.1629717904156194
 10       0.0000000615533272
 11      -0.0000017931747654
 12       0.0208698266819173
 13      -0.0000000013514959
 14      -0.0000002400508691
 15      -0.0054552145870228
 16      -0.0000003023499611
 17       0.0000001836501976
 18       0.0182936535221249
 19      -0.0000000003383212
 20       0.0007963788455719
 21       0.0000000449625808
 22      -0.0000000319176667
 23      -0.0029089040638470
 24      -0.0000000370956664
 25       0.0000001039927698
 26      -0.0038918137079876
 27      -0.0000000064144320
 28      -0.0000001438727622
 29       0.0000000178026903
 30      -0.0057236977564818
 31      -0.0000000016494006
 32       0.0373275376558558
 33       0.0887229438229016
 34      -0.1315554408280907
 35      -0.2135407921153071
 36      -0.1987002078046161
 37      -0.3936534004147133
 38      -0.0000000033037317
 39       0.0000042350187526
 40      -0.2832626531917142
 41       0.0000000014015127
 42       0.0000030434503686
 43      -0.1583893946774795
 44      -0.0000000058581664
 45       0.0000017050130734
 46      -0.0056542126284347
 47      -0.0000002019412330
 48      -0.0000000143049707
 49       0.0091006442833731
 50      -0.0000000068621280
 51      -0.0091172129008208
 52      -0.0000003288650201
 53      -0.0000000229284079
 54       0.0146868337604562
 55       0.0000000057253672
 56      -0.0000000168598194
 57       0.0006481020833476
 58       0.0000000002710195
 59       0.0000000515291039
 60      -0.0000000570336766
 61       0.0030766414928064
 62       0.0000000006961829
 63      -0.0532625390622297
 64      -0.0763040381341715
 65      -0.0239262206634487
 66       0.0006069055976894
 67       0.0088735520057757
 68      -0.0000001908073423
 69      -0.0532625356564448
 70      -0.0763038937677045
 71      -0.0239262677052374
 72       0.0006069201105514
 73      -0.0088735264760981
 74       0.0000001777527921
 Sym=     1a
 Ene= -4.09238024125340E-01
 Spin= Alpha
 Occup= 2.000000
  1       0.0000000032090019
  2       0.0000000072015719
  3      -0.0000000150225852
  4      -0.0000000167111160
  5      -0.0000000352014193
  6       0.0000029113805794
  7       0.0000055050732591
  8       0.2649888158990782
  9       0.0000023832237426
 10       0.0000045365219348
 11       0.2178918450320753
 12       0.0000011140653282
 13       0.0000021175818888
 14       0.1020285319207942
 15      -0.0000003446264947
 16       0.0183129764761722
 17      -0.0000000000631804
 18       0.0000001996352874
 19       0.0000003799416434
 20      -0.0000004713721960
 21       0.0250078674471659
 22       0.0000000000224917
 23       0.0000002711921531
 24       0.0000005095441957
 25      -0.0061919802348218
 26      -0.0000002655204752
 27      -0.0000001224134359
 28       0.0058871138197088
 29       0.0000000001060598
 30      -0.0000000801462631
 31      -0.0000001497363975
 32       0.0000000029343151
 33       0.0000000051100654
 34      -0.0000000044992448
 35      -0.0000000225609826
 36      -0.0000000027614762
 37       0.0000040403228469
 38       0.0000078173872409
 39       0.3762919950965179
 40       0.0000033134271989
 41       0.0000064084418493
 42       0.3084215655973422
 43       0.0000018403892650
 44       0.0000035720160730
 45       0.1718397441479906
 46       0.0000001771754341
 47      -0.0091775271191705
 48       0.0000000018198613
 49      -0.0000001014056611
 50      -0.0000001861406651
 51       0.0000005041197376
 52      -0.0271051775357523
 53      -0.0000000013121650
 54      -0.0000002897935072
 55      -0.0000005669376336
 56      -0.0019479694592559
 57      -0.0000001351282365
 58       0.0000000610336424
 59       0.0048774927080621
 60       0.0000000000324438
 61      -0.0000000643784904
 62      -0.0000001241792555
 63      -0.0000000024141881
 64      -0.0000000225912124
 65       0.0000000097299466
 66       0.0000000949868422
 67       0.0000001864738829
 68       0.0087923686751414
 69      -0.0000000027764252
 70       0.0000000004674933
 71       0.0000000000230720
 72       0.0000000967156653
 73       0.0000001835435314
 74       0.0087923688251119
 Sym=     1a
 Ene= -2.76279506885222E-01
 Spin= Alpha
 Occup= 2.000000
  1       0.0000000002656154
  2       0.0000000003389857
  3      -0.0000000108198469
  4       0.0000001049172501
  5       0.0000000413256924
  6       0.0000000020488094
  7       0.1088039214089968
  8      -0.0000022587214519
  9       0.0000001326053220
 10       0.0842943106471553
 11      -0.0000017509901953
 12       0.0000000370363235
 13      -0.0565499016409841
 14       0.0000011757403056
 15      -0.0000000020255809
 16       0.0000007050260410
 17       0.0000003708704196
 18       0.0000000043759504
 19      -0.0339322104746930
 20      -0.0000000044002208
 21       0.0000008855427587
 22       0.0000004628709010
 23       0.0000000547285995
 24      -0.0426844888298840
 25      -0.0000000490116725
 26      -0.0000000077825334
 27       0.0009655677770888
 28       0.0000001414877747
 29       0.0000001070260359
 30      -0.0000000002521078
 31       0.0068211820563004
 32       0.0000000003383112
 33       0.0000000005507623
 34       0.0000000091117210
 35      -0.0000000584708011
 36      -0.0000001580018672
 37      -0.0000000045995877
 38      -0.4279902622679310
 39       0.0000088888123916
 40       0.0000000525018489
 41      -0.3497286800894515
 42       0.0000072642501807
 43       0.0000000625339398
 44      -0.2653379973607921
 45       0.0000055113326560
 46      -0.0000000046114297
 47      -0.0000000802132729
 48      -0.0000000400125092
 49       0.0000000119649983
 50       0.0039034448088486
 51       0.0000000087992364
 52      -0.0000002633747679
 53      -0.0000001376027169
 54      -0.0000000214788207
 55       0.0126295270834374
 56       0.0000000461762720
 57      -0.0000000009774078
 58      -0.0009072378351823
 59       0.0000001073705604
 60       0.0000000247579222
 61      -0.0000000010157603
 62       0.0030451157358226
 63       0.1059505091045904
 64       0.1848631094088881
 65       0.2174547876166413
 66       0.0027098605118695
 67      -0.0062543414828138
 68       0.0000000996035569
 69      -0.1059505117608738
 70      -0.1848630054704083
 71      -0.2174548134129566
 72      -0.0027098465746102
 73      -0.0062543262881237
 74       0.0000001608885484
 Sym=     1a
 Ene= -5.52348538699058E-02
 Spin= Alpha
 Occup= 0.000000
  1       0.0000000084068101
  2       0.0000000189584718
  3      -0.0000000369918131
  4      -0.0000000634347841
  5      -0.0000002448322419
  6       0.0000037636122515
  7       0.0000071540370734
  8       0.3443773150690455
  9       0.0000037478207151
 10       0.0000071867769496
 11       0.3465618269418709
 12       0.0000055708406150
 13       0.0000106230333370
 14       0.5090404274302949
 15       0.0000003237451288
 16      -0.0173538810695949
 17      -0.0000000000343666
 18      -0.0000001899251512
 19      -0.0000003605387399
 20       0.0000009524149195
 21      -0.0504711296280611
 22      -0.0000000004115333
 23      -0.0000005597949382
 24      -0.0000010478496257
 25       0.0008080735822784
 26       0.0000001153519786
 27      -0.0000001362473905
 28      -0.0054146304727880
 29       0.0000000001074429
 30       0.0000000710110016
 31       0.0000001386515106
 32      -0.0000000013570671
 33      -0.0000000031982550
 34       0.0000000025810497
 35       0.0000000219959934
 36       0.0000000569045425
 37      -0.0000035139705440
 38      -0.0000067080164097
 39      -0.3229751734553701
 40      -0.0000027087003315
 41      -0.0000051403892295
 42      -0.2476462309209154
 43      -0.0000043610928216
 44      -0.0000083000278778
 45      -0.3991280670228189
 46       0.0000000650553887
 47      -0.0032665917023148
 48       0.0000000010998726
 49      -0.0000000373981616
 50      -0.0000000642805296
 51       0.0000001274799598
 52      -0.0070307059595153
 53      -0.0000000003306880
 54      -0.0000000713300862
 55      -0.0000001492845835
 56      -0.0015683430099478
 57      -0.0000000476168051
 58      -0.0000000678826606
 59       0.0003626257511446
 60       0.0000000000100723
 61      -0.0000000044186846
 62      -0.0000000095323324
 63       0.0000000175470546
 64       0.0000000243313805
 65       0.0000000711791251
 66       0.0000002441360278
 67       0.0000004677498323
 68       0.0225038397288478
 69       0.0000000174241488
 70       0.0000000108182056
 71       0.0000001653879513
 72       0.0000002429456208
 73       0.0000004647939439
 74       0.0225038399981838
 Sym=     1a
 Ene= 5.40734687491264E-02
 Spin= Alpha
 Occup= 0.000000
  1       0.0488531506478151
  2       0.1052728021972760
  3      -0.1774860437100717
  4      -0.4354683469915068
  5      -2.0626152108599913
  6       0.1574175456003972
  7       0.0000000030354357
  8      -0.0000017564915986
  9       0.0615578654167506
 10      -0.0000000459500342
 11      -0.0000007120228939
 12       0.6538557304753945
 13      -0.0000000283331892
 14      -0.0000072899270613
 15      -0.0108871467568262
 16      -0.0000001371577379
 17      -0.0000005206686562
 18      -0.0061920109362249
 19       0.0000000003631321
 20      -0.0199323955228185
 21       0.0000002553048115
 22      -0.0000019264988318
 23      -0.0582596066676317
 24       0.0000000362904920
 25      -0.0000002009423522
 26       0.0074782090257019
 27       0.0000000042246677
 28       0.0000000564499443
 29       0.0000003816820354
 30      -0.0053486437805226
 31      -0.0000000000726078
 32       0.0000424831693692
 33       0.0007291363853369
 34      -0.0132610841415357
 35       0.0819832437994626
 36      -0.0658527262085365
 37      -0.0503065513053217
 38       0.0000000024284506
 39       0.0000005703603860
 40      -0.0758356393249813
 41      -0.0000000020617691
 42       0.0000008339961224
 43      -0.0246460920475622
 44      -0.0000000006551978
 45       0.0000003384964854
 46      -0.0016405126431911
 47      -0.0000000252539280
 48      -0.0000000679439781
 49      -0.0003485322455671
 50      -0.0000000004304444
 51       0.0000489333965816
 52       0.0000000333593813
 53      -0.0000000574644929
 54      -0.0028950287332449
 55       0.0000000024506031
 56      -0.0000000072458505
 57       0.0002857231952351
 58      -0.0000000000814924
 59      -0.0000000024211734
 60       0.0000000228524123
 61      -0.0005288618801760
 62      -0.0000000000254712
 63       0.0479797344670532
 64      -0.1037196767382059
 65       1.7993296230628060
 66      -0.0175808084339693
 67       0.0337196064789043
 68      -0.0000005088099290
 69       0.0479797350488937
 70      -0.1037198034722751
 71       1.7993296380929276
 72      -0.0175808179061047
 73      -0.0337196264452214
 74       0.0000008925939868
 Sym=     1a
 Ene= 1.08811046621941E-01
 Spin= Alpha
 Occup= 0.000000
  1      -0.0092509206336097
  2      -0.0221989981932226
  3      -0.0227119773189944
  4       0.6379455162473111
  5       1.9204098228452890
  6       0.0219254578666300
  7      -0.0000019424993102
  8      -0.0000002225780805
  9       0.4805863672945000
 10      -0.0000006388222957
 11      -0.0000052016964778
 12       1.7730207725521931
 13      -0.0000097105485723
 14      -0.0000192437954532
 15       0.0117144018343115
 16       0.0000004308305940
 17       0.0000000172564342
 18      -0.0194479300570422
 19      -0.0000000167858757
 20      -0.0589814324903136
 21      -0.0000026738271198
 22       0.0000008851623994
 23       0.1447256790372506
 24      -0.0000012206717307
 25       0.0000003438299399
 26      -0.0128866059259458
 27      -0.0000001302226156
 28      -0.0000003383794835
 29      -0.0000001971269617
 30      -0.0089033461949000
 31      -0.0000000112830811
 32       0.0328260256785158
 33       0.0830924717888214
 34      -0.1784025534703067
 35      -0.0299654143200269
 36      -2.6193100580086259
 37       0.0408896383830223
 38       0.0000006044514181
 39      -0.0000004499717278
 40       0.1918519443913350
 41       0.0000004341490428
 42      -0.0000020894065564
 43       0.7297326129610131
 44       0.0000025217340500
 45      -0.0000079064979460
 46      -0.0017131474856343
 47      -0.0000000606646175
 48      -0.0000000064889589
 49       0.0026430627944483
 50       0.0000000447148558
 51       0.0328708276059475
 52       0.0000012558973341
 53      -0.0000000427671842
 54      -0.0589779867316615
 55      -0.0000000273599078
 56       0.0000000647348467
 57      -0.0024407589551545
 58       0.0000000074032217
 59      -0.0000000841732186
 60       0.0000000011330392
 61      -0.0031959226971159
 62       0.0000000126747329
 63      -0.0111334100975776
 64       0.0190340385442895
 65      -0.0255521342671593
 66       0.0268851085322898
 67       0.0054879685660119
 68      -0.0000004041358092
 69      -0.0111335400307403
 70       0.0190395182917953
 71      -0.0255839846543254
 72       0.0268855835669265
 73      -0.0054871834471678
 74      -0.0000001762610889
 Sym=     1a
 Ene= 1.12501116412338E-01
 Spin= Alpha
 Occup= 0.000000
  1       0.0000000611720939
  2       0.0000001473375395
  3      -0.0000000846760210
  4      -0.0000028187990131
  5      -0.0000130366679834
  6      -0.0000001498978894
  7      -0.2939182546968062
  8       0.0000061121380634
  9      -0.0000026033995443
 10      -0.1431021158232064
 11       0.0000029898329823
 12      -0.0000114546556789
 13      -1.3247647999185328
 14       0.0000274831598474
 15      -0.0000000983083035
 16       0.0000000416637993
 17       0.0000000245175326
 18       0.0000001511610198
 19      -0.0020014129494420
 20       0.0000002088696571
 21       0.0000035191766086
 22       0.0000018695355120
 23      -0.0000007112279867
 24      -0.1696619071816538
 25       0.0000008747297250
 26       0.0000000587873494
 27      -0.0171977189542570
 28       0.0000005480958304
 29      -0.0000003105842274
 30       0.0000000006639896
 31      -0.0006333938208384
 32      -0.0000002212230940
 33      -0.0000005600528829
 34       0.0000012386113719
 35      -0.0000000397214177
 36       0.0000162742448805
 37      -0.0000002962452814
 38       0.0879309678515731
 39      -0.0000018312258753
 40      -0.0000009726073316
 41       0.0670822639193136
 42      -0.0000014041540092
 43      -0.0000043589561179
 44       0.3520185946366318
 45      -0.0000072895179031
 46       0.0000000093497481
 47      -0.0000001453404436
 48      -0.0000000745052695
 49      -0.0000000128922037
 50       0.0069872059706817
 51      -0.0000001695617486
 52       0.0000000865148669
 53       0.0000000453983942
 54       0.0000003058156332
 55      -0.0042133382886577
 56      -0.0000000510338392
 57       0.0000000118458039
 58       0.0010011416640816
 59       0.0000000086427226
 60       0.0000000384505858
 61       0.0000000142355603
 62       0.0016305037744573
 63       0.0098759564909251
 64      -0.3797344383918817
 65       2.2803076834630689
 66      -0.0333538425293311
 67       0.0540713120965176
 68      -0.0000007525244039
 69      -0.0098758044030195
 70       0.3797340055043384
 71      -2.2803068658831149
 72       0.0333534593700904
 73       0.0540713303819615
 74      -0.0000014937465730
 Sym=     1a
 Ene= 2.05574879316107E-01
 Spin= Alpha
 Occup= 0.000000
  1      -0.0140068717575748
  2      -0.0188719997485177
  3      -0.1977430547434720
  4       1.4880854276033919
  5      -5.1781257519476176
  6      -0.0115265993172222
  7       0.0000000304360442
  8      -0.0000002211918562
  9      -0.1643224678693659
 10       0.0000000597637047
 11       0.0000009507893935
 12       1.6086745273522161