[Molden Format]
[Title]
 Molden file created by orca_2mkl for BaseName=Br

[Atoms] AU
Br   1  35          0.0000000000         0.0000000000         0.0000000000 
[GTO]
  1 0
s   6 1.0 
   113286.3877600000         7.5076141183
    17009.6263030000        13.8835270484
     3870.1842567000        22.7307285566
     1093.0357227000        30.8227297499
      356.3972179700        27.2481937511
      123.1253964300         9.6953381145
s   3 1.0 
      236.7408400700        -4.7631125758
       28.4686610700         5.6113863182
       11.8834437220         1.9900291396
s   3 1.0 
       21.2696333120        -1.5429794477
        3.6129226841         1.3310800628
        1.6626648969         0.4300130345
s   1 1.0 
        0.3482379323         0.3230852630
s   1 1.0 
        0.1301903139         0.1544699827
p   5 1.0 
     1560.2801881000       115.0180051576
      368.4785920500       143.9035925417
      117.2297884900       137.5255986684
       42.6489092480        78.9578527439
       16.0872250960        15.8580577654
p   3 1.0 
        8.6352810058         6.8437546680
        3.5613665502         3.7974971038
        1.5292626609         0.5585414278
p   1 1.0 
        0.5306429485         0.6455696201
p   1 1.0 
        0.1570275896         0.1408996918
d   4 1.0 
      104.8551864200       261.4493931636
       30.2811436880       176.6993802449
       10.6513942670        76.9545600188
        3.8699456233        17.5937671387
d   1 1.0 
        1.3240876762         4.6593398042
d   1 1.0 
        0.3890000000         0.5462379705

[5D]
[7F]
[9G]
[MO]
 Sym=     1a
 Ene= -4.89688839748318E+02
 Spin= Alpha
 Occup= 2.000000
  1       0.000000000000
  2       0.000000000000
  3       0.000000000000
  4       0.000000000000
  5       0.000000000000
  6       0.000000000000
  7       1.000000000000
  8       0.000000000000
  9       0.000000000000
 10       0.000000000000
 11       0.000000000000
 12       0.000000000000
 13       0.000000000000
 14       0.000000000000
 15       0.000000000000
 16       0.000000000000
 17       0.000000000000
 18       0.000000000000
 19       0.000000000000
 20       0.000000000000
 21       0.000000000000
 22       0.000000000000
 23       0.000000000000
 24       0.000000000000
 25       0.000000000000
 26       0.000000000000
 27       0.000000000000
 28       0.000000000000
 29       0.000000000000
 30       0.000000000000
 31       0.000000000000
 32       0.000000000000
 Sym=     1a
 Ene= -6.48591388638161E+01
 Spin= Alpha
 Occup= 2.000000
  1       0.000000000000
  2       0.000000000000
  3       0.000000000000
  4       0.000000000000
  5       0.000000000000
  6       0.000000000000
  7       1.000000000000
  8       0.000000000000
  9       0.000000000000
 10       0.000000000000
 11       0.000000000000
 12       0.000000000000
 13       0.000000000000
 14       0.000000000000
 15       0.000000000000
 16       0.000000000000
 17       0.000000000000
 18       0.000000000000
 19       0.000000000000
 20       0.000000000000
 21       0.000000000000
 22       0.000000000000
 23       0.000000000000
 24       0.000000000000
 25       0.000000000000
 26       0.000000000000
 27       0.000000000000
 28       0.000000000000
 29       0.000000000000
 30       0.000000000000
 31       0.000000000000
 32       0.000000000000
 Sym=     1a
 Ene= -5.76712535509588E+01
 Spin= Alpha
 Occup= 2.000000
  1       0.000000000000
  2       0.000000000000
  3       0.000000000000
  4       0.000000000000
  5       0.000000000000
  6       0.000000000000
  7       1.000000000000
  8       0.000000000000
  9       0.000000000000
 10       0.000000000000
 11       0.000000000000
 12       0.000000000000
 13       0.000000000000
 14       0.000000000000
 15       0.000000000000
 16       0.000000000000
 17       0.000000000000
 18       0.000000000000
 19       0.000000000000
 20       0.000000000000
 21       0.000000000000
 22       0.000000000000
 23       0.000000000000
 24       0.000000000000
 25       0.000000000000
 26       0.000000000000
 27       0.000000000000
 28       0.000000000000
 29       0.000000000000
 30       0.000000000000
 31       0.000000000000
 32       0.000000000000
 Sym=     1a
 Ene= -5.76621194957557E+01
 Spin= Alpha
 Occup= 2.000000
  1       0.000000000000
  2       0.000000000000
  3       0.000000000000
  4       0.000000000000
  5       0.000000000000
  6       0.000000000000
  7       1.000000000000
  8       0.000000000000
  9       0.000000000000
 10       0.000000000000
 11       0.000000000000
 12       0.000000000000
 13       0.000000000000
 14       0.000000000000
 15       0.000000000000
 16       0.000000000000
 17       0.000000000000
 18       0.000000000000
 19       0.000000000000
 20       0.000000000000
 21       0.000000000000
 22       0.000000000000
 23       0.000000000000
 24       0.000000000000
 25       0.000000000000
 26       0.000000000000
 27       0.000000000000
 28       0.000000000000
 29       0.000000000000
 30       0.000000000000
 31       0.000000000000
 32       0.000000000000
 Sym=     1a
 Ene= -5.76621194955899E+01
 Spin= Alpha
 Occup= 2.000000
  1       0.000000000000
  2       0.000000000000
  3       0.000000000000
  4       0.000000000000
  5       0.000000000000
  6       0.000000000000
  7       1.000000000000
  8       0.000000000000
  9       0.000000000000
 10       0.000000000000
 11       0.000000000000
 12       0.000000000000
 13       0.000000000000
 14       0.000000000000
 15       0.000000000000
 16       0.000000000000
 17       0.000000000000
 18       0.000000000000
 19       0.000000000000
 20       0.000000000000
 21       0.000000000000
 22       0.000000000000
 23       0.000000000000
 24       0.000000000000
 25       0.000000000000
 26       0.000000000000
 27       0.000000000000
 28       0.000000000000
 29       0.000000000000
 30       0.000000000000
 31       0.000000000000
 32       0.000000000000
 Sym=     1a
 Ene= -9.49637312382505E+00
 Spin= Alpha
 Occup= 2.000000
  1       0.000000000000
  2       0.000000000000
  3       0.000000000000
  4       0.000000000000
  5       0.000000000000
  6       0.000000000000
  7       1.000000000000
  8       0.000000000000
  9       0.000000000000
 10       0.000000000000
 11       0.000000000000
 12       0.000000000000
 13       0.000000000000
 14       0.000000000000
 15       0.000000000000
 16       0.000000000000
 17       0.000000000000
 18       0.000000000000
 19       0.000000000000
 20       0.000000000000
 21       0.000000000000
 22       0.000000000000
 23       0.000000000000
 24       0.000000000000
 25       0.000000000000
 26       0.000000000000
 27       0.000000000000
 28       0.000000000000
 29       0.000000000000
 30       0.000000000000
 31       0.000000000000
 32       0.000000000000
 Sym=     1a
 Ene= -7.17947680049923E+00
 Spin= Alpha
 Occup= 2.000000
  1       0.000000000000
  2       0.000000000000
  3       0.000000000000
  4       0.000000000000
  5       0.000000000000
  6       0.000000000000
  7       1.000000000000
  8       0.000000000000
  9       0.000000000000
 10       0.000000000000
 11       0.000000000000
 12       0.000000000000
 13       0.000000000000
 14       0.000000000000
 15       0.000000000000
 16       0.000000000000
 17       0.000000000000
 18       0.000000000000
 19       0.000000000000
 20       0.000000000000
 21       0.000000000000
 22       0.000000000000
 23       0.000000000000
 24       0.000000000000
 25       0.000000000000
 26       0.000000000000
 27       0.000000000000
 28       0.000000000000
 29       0.000000000000
 30       0.000000000000
 31       0.000000000000
 32       0.000000000000
 Sym=     1a
 Ene= -7.13860161340661E+00
 Spin= Alpha
 Occup= 2.000000
  1      -0.000000000005
  2       0.000000000019
  3      -0.000000000035
  4      -0.000000000019
  5       0.000000000001
  6       0.254677202315
  7      -0.148563933375
  8       0.319704366942
  9      -0.634280475286
 10       0.370002502840
 11      -0.796232391316
 12      -0.003031097560
 13       0.001768166757
 14      -0.003805032916
 15      -0.001389512397
 16       0.000810561090
 17      -0.001744298965
 18       0.000000000019
 19      -0.000000000015
 20      -0.000000000025
 21      -0.000000000014
 22       0.000000000009
 23      -0.000000000031
 24       0.000000000041
 25       0.000000000062
 26       0.000000000050
 27       0.000000000001
 28       0.000000000047
 29      -0.000000000001
 30      -0.000000000044
 31      -0.000000000033
 32      -0.000000000010
 Sym=     1a
 Ene= -7.13860161288770E+00
 Spin= Alpha
 Occup= 2.000000
  1      -0.000000000004
  2       0.000000000017
  3      -0.000000000026
  4      -0.000000000042
  5       0.000000000025
  6       0.344489523373
  7       0.188662539248
  8      -0.186751215505
  9      -0.857960495211
 10      -0.469869167614
 11       0.465108964035
 12      -0.004100018923
 13      -0.002245409352
 14       0.002222661231
 15      -0.001879526176
 16      -0.001029338067
 17       0.001018909943
 18      -0.000000000043
 19       0.000000000023
 20       0.000000000006
 21       0.000000000000
 22       0.000000000040
 23       0.000000000036
 24      -0.000000000046
 25      -0.000000000027
 26       0.000000000009
 27      -0.000000000010
 28      -0.000000000000
 29       0.000000000056
 30       0.000000000039
 31      -0.000000000014
 32      -0.000000000045
 Sym=     1a
 Ene= -3.12234329340968E+00
 Spin= Alpha
 Occup= 2.000000
  1       0.000943290401
  2      -0.003296422246
  3       0.010541984051
  4      -0.010645885671
  5       0.004003236857
  6       0.000000000001
  7       0.000000000008
  8       0.000000000006
  9      -0.000000000006
 10      -0.000000000020
 11      -0.000000000017
 12       0.000000000043
 13       0.000000000008
 14       0.000000000010
 15      -0.000000000001
 16      -0.000000000012
 17       0.000000000016
 18       0.073878037092
 19       0.132615765382
 20      -0.642059168898
 21       0.488430151332
 22       0.210759521652
 23       0.023085513714
 24       0.041439962257
 25      -0.200631558840
 26       0.152625345749
 27       0.065858433940
 28       0.001928569298
 29       0.003461904251
 30      -0.016760807666
 31       0.012750357298
 32       0.005501829162
 Sym=     1a
 Ene= -3.11168988997536E+00
 Spin= Alpha
 Occup= 2.000000
  1      -0.000000000004
  2       0.000000000010
  3      -0.000000000058
  4       0.000000000054
  5       0.000000000128
  6       0.000000000011
  7      -0.000000000004
  8       0.000000000016
  9      -0.000000000033
 10       0.000000000012
 11      -0.000000000049
 12       0.000000000059
 13      -0.000000000017
 14       0.000000000089
 15      -0.000000000025
 16      -0.000000000037
 17      -0.000000000085
 18      -0.570288150480
 19      -0.148301883299
 20      -0.369047967722
 21      -0.160938346444
 22      -0.458079202609
 23      -0.177506483955
 24      -0.046160078692
 25      -0.114868960770
 26      -0.050093273024
 27      -0.142580603413
 28      -0.015141417946
 29      -0.003937484556
 30      -0.009798396617
 31      -0.004272988613
 32      -0.012162217752
 Sym=     1a
 Ene= -3.11168988956894E+00
 Spin= Alpha
 Occup= 2.000000
  1       0.000000000003
  2      -0.000000000010
  3       0.000000000044
  4       0.000000000018
  5      -0.000000000191
  6       0.000000000011
  7      -0.000000000024
  8      -0.000000000020
  9      -0.000000000041
 10       0.000000000075
 11       0.000000000069
 12       0.000000000170
 13      -0.000000000119
 14      -0.000000000191
 15      -0.000000000151
 16      -0.000000000005
 17       0.000000000115
 18      -0.324236854563
 19       0.416870287205
 20      -0.106302916239
 21      -0.420536382160
 22       0.502090230855
 23      -0.100921164162
 24       0.129754017993
 25      -0.033087583643
 26      -0.130895117645
 27       0.156279367639
 28      -0.008608640579
 29       0.011068101744
 30      -0.002822392348
 31      -0.011165438276
 32       0.013330731189
 Sym=     1a
 Ene= -3.07885428321781E+00
 Spin= Alpha
 Occup= 2.000000
  1       0.000000000013
  2      -0.000000000046
  3       0.000000000153
  4      -0.000000000246
  5       0.000000000220
  6       0.000000000013
  7       0.000000000007
  8       0.000000000021
  9      -0.000000000044
 10      -0.000000000021
 11      -0.000000000070
 12       0.000000000149
 13       0.000000000040
 14       0.000000000189
 15      -0.000000000198
 16       0.000000000055
 17      -0.000000000198
 18       0.015616822204
 19      -0.705984000133
 20      -0.157165992500
 21      -0.191124742157
 22       0.402886132456
 23       0.004799011010
 24      -0.216947147139
 25      -0.048296723039
 26      -0.058732163283
 27       0.123805917734
 28       0.000421127711
 29      -0.019037766038
 30      -0.004238183006
 31      -0.005153924330
 32       0.010864342435
 Sym=     1a
 Ene= -3.07885428321077E+00
 Spin= Alpha
 Occup= 2.000000
  1       0.000000000004
  2      -0.000000000017
  3       0.000000000023
  4       0.000000000121
  5      -0.000000000143
  6       0.000000000005
  7       0.000000000017
  8      -0.000000000008
  9      -0.000000000019
 10      -0.000000000056
 11       0.000000000027
 12       0.000000000092
 13       0.000000000167
 14      -0.000000000097
 15      -0.000000000056
 16      -0.000000000105
 17       0.000000000090
 18      -0.533188860873
 19      -0.097486060988
 20       0.367263378252
 21       0.492131110072
 22       0.226572358461
 23      -0.163847625778
 24      -0.029957226771
 25       0.112859132996
 26       0.151230679875
 27       0.069625128635
 28      -0.014378122993
 29      -0.002628836972
 30       0.009903729100
 31       0.013270947975
 32       0.006109814844
 Sym=     1a
 Ene= -1.19329230801999E+00
 Spin= Alpha
 Occup= 2.000000
  1      -0.046708084997
  2       0.130158987553
  3      -0.670228661265
  4       1.023906261448
  5       0.179508379645
  6       0.000000000136
  7       0.000000000055
  8       0.000000000002
  9      -0.000000000435
 10      -0.000000000176
 11      -0.000000000001
 12       0.000000000867
 13       0.000000000268
 14      -0.000000000103
 15      -0.000000000006
 16       0.000000000352
 17       0.000000000319
 18       0.001123078222
 19       0.002015996538
 20      -0.009760446324
 21       0.007425010956
 22       0.003203921478
 23      -0.000382396118
 24      -0.000686424940
 25       0.003323324841
 26      -0.002528134867
 27      -0.001090900478
 28      -0.001468901320
 29      -0.002636771389
 30       0.012765932463
 31      -0.009711357849
 32      -0.004190487837
 Sym=     1a
 Ene= -6.81024991870204E-01
 Spin= Alpha
 Occup= 2.000000
  1      -0.000000000031
  2       0.000000000082
  3      -0.000000000460
  4       0.000000001137
  5      -0.000000000653
  6      -0.072499929484
  7       0.041671915580
  8      -0.090025594956
  9       0.228943348837
 10      -0.131593340911
 11       0.284286637312
 12      -0.382365187797
 13       0.219778016367
 14      -0.474795670783
 15      -0.306315019213
 16       0.176065428559
 17      -0.380361671146
 18       0.000000000156
 19       0.000000000246
 20       0.000000000078
 21       0.000000000066
 22      -0.000000000046
 23      -0.000000000003
 24       0.000000000039
 25       0.000000000057
 26       0.000000000020
 27       0.000000000021
 28      -0.000000000672
 29      -0.000000000825
 30      -0.000000000582
 31      -0.000000000168
 32      -0.000000000041
 Sym=     1a
 Ene= -6.81024988770022E-01
 Spin= Alpha
 Occup= 2.000000
  1      -0.000000000012
  2       0.000000000041
  3      -0.000000000145
  4      -0.000000000483
  5       0.000000001319
  6      -0.096919745993
  7      -0.053537518337
  8       0.053270004015
  9       0.306057280074
 10       0.169063043115
 11      -0.168218275786
 12      -0.511155491671
 13      -0.282357272970
 14       0.280946420446
 15      -0.409489683754
 16      -0.226198129579
 17       0.225067813766
 18       0.000000000002
 19      -0.000000000080
 20       0.000000000169
 21       0.000000000134
 22      -0.000000000155
 23       0.000000000045
 24      -0.000000000000
 25      -0.000000000048
 26      -0.000000000022
 27      -0.000000000013
 28      -0.000000000201
 29       0.000000000265
 30      -0.000000000514
 31      -0.000000000302
 32       0.000000000669
 Sym=     1a
 Ene= -6.31334344430012E-01
 Spin= Alpha
 Occup= 0.000000
  1      -0.000000000015
  2       0.000000000042
  3      -0.000000000216
  4       0.000000000206
  5       0.000000000298
  6       0.021203114335
  7      -0.102654768618
  8      -0.064593234115
  9      -0.066848866133
 10       0.323648436480
 11       0.203648593150
 12       0.110811423205
 13      -0.536492833452
 14      -0.337576199937
 15       0.090126020810
 16      -0.436344942937
 17      -0.274560381517
 18       0.000000000045
 19      -0.000000000035
 20      -0.000000000016
 21       0.000000000071
 22       0.000000000077
 23       0.000000000039
 24      -0.000000000013
 25       0.000000000041
 26      -0.000000000004
 27       0.000000000015
 28      -0.000000000055
 29      -0.000000000267
 30       0.000000000087
 31       0.000000000029
 32      -0.000000000354
 Sym=     1a
 Ene= -1.98586794692139E-02
 Spin= Alpha
 Occup= 0.000000
  1       0.034598761266
  2      -0.083816531970
  3       0.548716351201
  4      -2.016118277227
  5       1.965242864383
  6      -0.000000000202
  7       0.000000000069
  8      -0.000000000121
  9       0.000000000666
 10      -0.000000000220
 11       0.000000000401
 12      -0.000000002053
 13       0.000000000383
 14      -0.000000000997
 15       0.000000002182
 16       0.000000000185
 17       0.000000000399
 18      -0.000633025436
 19      -0.001136320943
 20       0.005501441165
 21      -0.004185080960
 22      -0.001805895002
 23       0.000940195998
 24       0.001687711566
 25      -0.008171069066
 26       0.006215932751
 27       0.002682195380
 28      -0.000902835423
 29      -0.001620645779
 30       0.007846616384
 31      -0.005969114450
 32      -0.002575622431
 Sym=     1a
 Ene= 1.46171672445528E-01
 Spin= Alpha
 Occup= 0.000000
  1      -0.000789893177
  2       0.002263882695
  3      -0.011171064015
  4       0.011757576964
  5       0.012262209737
  6      -0.000000000000
  7      -0.000000000002
  8      -0.000000000055
  9       0.000000000015
 10       0.000000000012
 11       0.000000000176
 12      -0.000000000343
 13      -0.000000000090
 14      -0.000000000375
 15       0.000000000833
 16       0.000000000065
 17       0.000000000136
 18      -0.021732879744
 19      -0.039011946471
 20       0.188877953152
 21      -0.143684064365
 22      -0.061999662521
 23      -0.000697623269
 24      -0.001252279917
 25       0.006062978471
 26      -0.004612255363
 27      -0.001990183666
 28       0.086854612094
 29       0.155909734045
 30      -0.754843464298
 31       0.574227828224
 32       0.247779252036
 Sym=     1a
 Ene= 1.48438739378635E-01
 Spin= Alpha
 Occup= 0.000000
  1       0.000000003990
  2      -0.000000010394
  3       0.000000060453
  4      -0.000000161123
  5       0.000000107617
  6       0.000000000001
  7       0.000000000129
  8       0.000000000147
  9       0.000000000007
 10      -0.000000000424
 11      -0.000000000466
 12      -0.000000000269
 13       0.000000001259
 14       0.000000000930
 15       0.000000000790
 16      -0.000000001301
 17      -0.000000000009
 18       0.166119055771
 19       0.045125029077
 20       0.107897273732
 21       0.045615430195
 22       0.136364387915
 23       0.005958796016
 24       0.001618662886
 25       0.003870346429
 26       0.001636252518
 27       0.004891476630
 28      -0.665462170376
 29      -0.180767940201
 30      -0.432229491806
 31      -0.182732451997
 32      -0.546266898189
 Sym=     1a
 Ene= 1.48438741924686E-01
 Spin= Alpha
 Occup= 0.000000
  1      -0.000000003245
  2       0.000000008425
  3      -0.000000049264
  4       0.000000133731
  5      -0.000000092049
  6       0.000000000132
  7      -0.000000000057
  8      -0.000000000120
  9      -0.000000000417
 10       0.000000000196
 11       0.000000000388
 12       0.000000000831
 13      -0.000000000718
 14      -0.000000000903
 15       0.000000000021
 16       0.000000000756
 17       0.000000000245
 18       0.097346977640
 19      -0.121770972076
 20       0.032615842404
 21       0.124035043435
 22      -0.145590370001
 23       0.003491897847
 24      -0.004368001318
 25       0.001169948952
 26       0.004449216878
 27      -0.005222417992
 28      -0.389965682541
 29       0.487806619384
 30      -0.130656945686
 31      -0.496876347115
 32       0.583225582987
 Sym=     1a
 Ene= 1.81016119452845E-01
 Spin= Alpha
 Occup= 0.000000
  1      -0.000000000243
  2       0.000000000591
  3      -0.000000003850
  4       0.000000014016
  5      -0.000000013555
  6      -0.000000000235
  7       0.000000000043
  8      -0.000000000177
  9       0.000000000759
 10      -0.000000000149
 11       0.000000000577
 12      -0.000000001812
 13       0.000000000487
 14      -0.000000001541
 15       0.000000000957
 16      -0.000000000347
 17       0.000000000985
 18       0.049296825601
 19      -0.188621553377
 20      -0.074776907390
 21      -0.094770241882
 22       0.093232704779
 23       0.001892122462
 24      -0.007239717019
 25      -0.002870105054
 26      -0.003637493730
 27       0.003578479809
 28      -0.198658786345
 29       0.760116465517
 30       0.301339680326
 31       0.381909808144
 32      -0.375713765590
 Sym=     1a
 Ene= 1.81016119508703E-01
 Spin= Alpha
 Occup= 0.000000
  1       0.000000000263
  2      -0.000000000635
  3       0.000000004176
  4      -0.000000015441
  5       0.000000015124
  6      -0.000000000015
  7      -0.000000000055
  8       0.000000000130
  9       0.000000000066
 10       0.000000000185
 11      -0.000000000423
 12      -0.000000000448
 13      -0.000000000513
 14       0.000000001037
 15       0.000000000606
 16       0.000000000309
 17      -0.000000000582
 18       0.147344518185
 19       0.086688119475
 20      -0.089150847208
 21      -0.121103400645
 22      -0.097131071096
 23       0.005655412175
 24       0.003327283822
 25      -0.003421808764
 26      -0.004648219403
 27      -0.003728107853
 28      -0.593776227610
 29      -0.349340071513
 30       0.359264493349
 31       0.488028474238
 32       0.391423595115
 Sym=     1a
 Ene= 2.56373866639035E-01
 Spin= Alpha
 Occup= 0.000000
  1       0.000000000011
  2      -0.000000000031
  3       0.000000000168
  4      -0.000000000315
  5       0.000000000079
  6       0.023346351623
  7      -0.113032635140
  8      -0.071123341889
  9      -0.077294651745
 10       0.374226276884
 11       0.235473794086
 12       0.228772620537
 13      -1.107615112119
 14      -0.696942862009
 15      -0.212578046319
 16       1.029208051493
 17       0.647606907418
 18       0.000000000143
 19       0.000000000107
 20       0.000000000091
 21      -0.000000000018
 22       0.000000000249
 23      -0.000000000037
 24      -0.000000000082
 25      -0.000000000021
 26       0.000000000061
 27      -0.000000000105
 28      -0.000000000481
 29      -0.000000000637
 30      -0.000000000280
 31       0.000000000160
 32      -0.000000000924
 Sym=     1a
 Ene= 2.89104051833597E-01
 Spin= Alpha
 Occup= 0.000000
  1       0.000000000047
  2      -0.000000000112
  3       0.000000000780
  4      -0.000000002847
  5       0.000000002701
  6       0.079075917713
  7      -0.045762081037
  8       0.098684102817
  9      -0.262208953582
 10       0.151743131153
 11      -0.327228012190
 12       0.779856085867
 13      -0.451311075628
 14       0.973234333620
 15      -0.726898033868
 16       0.420663699008
 17      -0.907144438663
 18       0.000000000080
 19      -0.000000000256
 20       0.000000000173
 21      -0.000000000140
 22       0.000000000217
 23      -0.000000000005
 24       0.000000000229
 25      -0.000000000086
 26       0.000000000139
 27      -0.000000000115
 28      -0.000000000279
 29       0.000000001072
 30      -0.000000000068
 31       0.000000000524
 32      -0.000000000732
 Sym=     1a
 Ene= 2.89104068746793E-01
 Spin= Alpha
 Occup= 0.000000
  1      -0.000000000056
  2       0.000000000148
  3      -0.000000000821
  4       0.000000002446
  5      -0.000000002051
  6      -0.106284492010
  7      -0.058478271812
  8       0.058048420841
  9       0.352430249974
 10       0.193908928864
 11      -0.192483579297
 12      -1.048190278804
 13      -0.576719658415
 14       0.572480418607
 15       0.977010337433
 16       0.537556072240
 17      -0.533604734738
 18      -0.000000000214
 19      -0.000000000018
 20       0.000000000041
 21       0.000000000234
 22       0.000000000124
 23      -0.000000000036
 24       0.000000000034
 25      -0.000000000009
 26      -0.000000000082
 27       0.000000000087
 28       0.000000000432
 29       0.000000000067
 30      -0.000000000090
 31      -0.000000000668
 32      -0.000000000172
 Sym=     1a
 Ene= 2.98664163602216E+00
 Spin= Alpha
 Occup= 0.000000
  1      -0.000385618674
  2       0.000844711961
  3      -0.006921417933
  4       0.022092270776
  5      -0.016190172217
  6      -0.000000000011
  7      -0.000000000004
  8      -0.000000000007
  9       0.000000000031
 10       0.000000000001
 11       0.000000000032
 12      -0.000000000089
 13       0.000000000045
 14      -0.000000000116
 15       0.000000000090
 16      -0.000000000049
 17       0.000000000073
 18      -0.062696328628
 19      -0.112543910679
 20       0.544881838744
 21      -0.414504962281
 22      -0.178860334087
 23       0.114988586776
 24       0.206411850886
 25      -0.999343882338
 26       0.760225371492
 27       0.328039894664
 28      -0.059603738687
 29      -0.106992514231
 30       0.518004721071
 31      -0.394058880579
 32      -0.170037780748
 Sym=     1a
 Ene= 2.99889646147130E+00
 Spin= Alpha
 Occup= 0.000000
  1       0.000000000036
  2      -0.000000000080
  3       0.000000000680
  4      -0.000000000956
  5      -0.000000000861
  6      -0.000000000004
  7       0.000000000003
  8      -0.000000000002
  9       0.000000000016
 10      -0.000000000017
 11       0.000000000003
 12      -0.000000000069
 13       0.000000000087
 14      -0.000000000013
 15       0.000000000048
 16      -0.000000000093
 17      -0.000000000033
 18       0.476474990951
 19       0.134480556170
 20       0.310523080494
 21       0.127521576884
 22       0.398813187089
 23      -0.874407191208
 24      -0.246793153074
 25      -0.569859110220
 26      -0.234022322458
 27      -0.731885461817
 28       0.452687084071
 29       0.127766644875
 30       0.295020283813
 31       0.121155091910
 32       0.378902528676
 Sym=     1a
 Ene= 2.99889646356595E+00
 Spin= Alpha
 Occup= 0.000000
  1      -0.000000000010
  2       0.000000000018
  3      -0.000000000245
  4       0.000000000023
  5       0.000000001060
  6       0.000000000028
  7      -0.000000000020
  8      -0.000000000028
  9      -0.000000000076
 10       0.000000000043
 11       0.000000000070
 12       0.000000000097
 13      -0.000000000036
 14      -0.000000000070
 15      -0.000000000083
 16       0.000000000039
 17       0.000000000079
 18       0.286821383315
 19      -0.350166252268
 20       0.097877746032
 21       0.359797797940
 22      -0.415853714951
 23      -0.526362736589
 24       0.642610619747
 25      -0.179621190636
 26      -0.660286033632
 27       0.763157533658
 28       0.272501890273
 29      -0.332684281473
 30       0.092991222826
 31       0.341834973326
 32      -0.395092312410
 Sym=     1a
 Ene= 3.04404646815125E+00
 Spin= Alpha
 Occup= 0.000000
  1       0.000000000010
  2      -0.000000000025
  3       0.000000000162
  4      -0.000000000631
  5       0.000000000663
  6       0.000000000012
  7      -0.000000000006
  8      -0.000000000002
  9      -0.000000000017
 10       0.000000000009
 11       0.000000000021
 12      -0.000000000005
 13       0.000000000059
 14      -0.000000000120
 15       0.000000000032
 16      -0.000000000009
 17       0.000000000070
 18      -0.422768289163
 19      -0.266463895875
 20       0.252133170761
 21       0.343054958032
 22       0.288938920057
 23       0.777960210765
 24       0.490335519381
 25      -0.463964728981
 26      -0.631275131888
 27      -0.531693102075
 28      -0.402179022149
 29      -0.253486819757
 30       0.239854016347
 31       0.326347815274
 32       0.274867286091
 Sym=     1a
 Ene= 3.04404646815595E+00
 Spin= Alpha
 Occup= 0.000000
  1      -0.000000000005
  2       0.000000000011
  3      -0.000000000078
  4       0.000000000343
  5      -0.000000000382
  6       0.000000000016
  7      -0.000000000015
  8       0.000000000041
  9      -0.000000000059
 10       0.000000000036
 11      -0.000000000103
 12       0.000000000159
 13      -0.000000000052
 14       0.000000000112
 15      -0.000000000136
 16       0.000000000067
 17      -0.000000000134
 18      -0.154795880042
 19       0.539280817682
 20       0.223857151044
 21       0.284371892984
 22      -0.262134719733
 23       0.284848789718
 24      -0.992361606497
 25      -0.411932400917
 26      -0.523289053353
 27       0.482369153692
 28      -0.147257155383
 29       0.513017266210
 30       0.212955068691
 31       0.270522678336
 32      -0.249368478953
