[Molden Format]
[Title]
 Molden file created by orca_2mkl for BaseName=H2CO

[Atoms] AU
C    1   6         -0.7957457959        -2.0238192436         0.0000187758 
O    2   8          1.4650590376        -2.0238191071        -0.0000057833 
H    3   1         -1.9329235908        -0.2384887808        -0.0000057838 
H    4   1         -1.9329237674        -3.8091497112         0.0000683804 
[GTO]
  1 0
s   5 1.0 
     1238.4016938000         0.8208956682
      186.2900499200         1.4766449896
       42.2511763460         2.1526124058
       11.6765579320         2.1081722461
        3.5930506482         0.8290999933
s   1 1.0 
        0.4024514736         0.3601183351
s   1 1.0 
        0.1309018267         0.1551027052
p   3 1.0 
        9.4680970621         1.3467645142
        2.0103545142         1.0678070931
        0.5477100471         0.5108735714
p   1 1.0 
        0.1526861379         0.1360471976
d   1 1.0 
        0.8000000000         1.9292013661

  2 0
s   5 1.0 
     2266.1767785000        -1.2615859742
      340.8701019100        -2.2748500410
       77.3631351670        -3.3479623295
       21.4796449400        -3.3299980531
        6.6589433124        -1.3203828288
s   1 1.0 
        0.8097597567         0.6083832301
s   1 1.0 
        0.2553077223         0.2559811911
p   3 1.0 
       17.7215043170         3.2460107647
        3.8635505440         2.5734959178
        1.0480920883         1.1208372892
p   1 1.0 
        0.2764154441         0.2856886381
d   1 1.0 
        1.2000000000         3.9222679946

  3 0
s   3 1.0 
       13.0107010000         0.1634903809
        1.9622572000         0.2773515510
        0.4445379600         0.3157501452
s   1 1.0 
        0.1219496200         0.1470772262
p   1 1.0 
        0.8000000000         1.0784563492

  4 0
s   3 1.0 
       13.0107010000         0.1634903809
        1.9622572000         0.2773515510
        0.4445379600         0.3157501452
s   1 1.0 
        0.1219496200         0.1470772262
p   1 1.0 
        0.8000000000         1.0784563492

[5D]
[7F]
[9G]
[MO]
 Sym=     1a
 Ene= -1.92430777583312E+01
 Spin= Alpha
 Occup= 2.000000
  1       0.000276213071
  2       0.001068598942
  3       0.010870182084
  4      -0.001026891890
  5      -0.000000000042
  6       0.000000011288
  7       0.007244928317
  8       0.000000001354
  9      -0.000000079163
 10       0.000507919423
 11       0.000000030776
 12      -0.000000022647
 13      -0.001963211128
 14      -0.000000000248
 15      -0.989277019765
 16       0.039362044365
 17      -0.026242384626
 18      -0.002942642620
 19      -0.000000000159
 20       0.000000031847
 21       0.005775938200
 22       0.000000000086
 23      -0.000000062438
 24      -0.000230113438
 25      -0.000000009007
 26       0.000000000581
 27       0.000425755699
 28       0.000000000083
 29      -0.000550326770
 30      -0.000392209650
 31      -0.000854995245
 32      -0.000155716119
 33       0.000000012622
 34      -0.000550326108
 35      -0.000392208571
 36      -0.000854995353
 37       0.000155716286
 38       0.000000006045
 Sym=     1a
 Ene= -1.03375101236224E+01
 Spin= Alpha
 Occup= 2.000000
  1      -0.988782890036
  2      -0.045760504539
  3       0.019136425765
  4      -0.000758906491
  5      -0.000000000341
  6       0.000000007932
  7      -0.006178113539
  8      -0.000000000431
  9       0.000000067241
 10       0.002689868210
 11       0.000000056181
 12       0.000000086441
 13      -0.000516439126
 14      -0.000000000348
 15      -0.000183497846
 16       0.000175310459
 17       0.007321551201
 18      -0.000907581306
 19      -0.000000000023
 20       0.000000009733
 21      -0.006122080352
 22      -0.000000000109
 23       0.000000066791
 24      -0.000377826150
 25      -0.000000010379
 26      -0.000000007387
 27       0.000299425616
 28      -0.000000000066
 29       0.003740267188
 30      -0.006456710148
 31       0.001650439633
 32      -0.001975892426
 33       0.000000022809
 34       0.003740266683
 35      -0.006456710064
 36       0.001650439900
 37       0.001975892668
 38      -0.000000059155
 Sym=     1a
 Ene= -1.08449470498763E+00
 Spin= Alpha
 Occup= 2.000000
  1       0.148791859786
  2      -0.287486007358
  3      -0.029411562351
  4      -0.199242946107
  5      -0.000000012494
  6       0.000002164504
  7      -0.016745066913
  8      -0.000000001392
  9       0.000000181112
 10       0.012586231777
 11       0.000000516940
 12      -0.000000082531
 13      -0.025782091678
 14      -0.000000003483
 15      -0.258152978146
 16      -0.514957627046
 17      -0.259611974449
 18       0.168353306953
 19       0.000000009412
 20      -0.000001829308
 21       0.031033963947
 22       0.000000002146
 23      -0.000000337279
 24       0.004881879547
 25       0.000000244858
 26      -0.000000116918
 27      -0.014082685115
 28      -0.000000001689
 29      -0.029845776934
 30      -0.004165547896
 31      -0.003834881905
 32       0.006024049311
 33      -0.000000082980
 34      -0.029845766991
 35      -0.004165549546
 36      -0.003834882631
 37      -0.006024045793
 38       0.000000167428
 Sym=     1a
 Ene= -6.43450458528660E-01
 Spin= Alpha
 Occup= 2.000000
  1      -0.210282455883
  2       0.443349699232
  3       0.166852617929
  4      -0.208679031371
  5       0.000000013309
  6       0.000002284137
  7      -0.080968800746
  8      -0.000000006378
  9       0.000000878536
 10      -0.000801999006
 11       0.000000093352
 12      -0.000000237334
 13      -0.010005591972
 14      -0.000000000435
 15      -0.115918381814
 16      -0.247664267791
 17      -0.188205231494
 18      -0.105746947607
 19       0.000000006098
 20       0.000001154965
 21      -0.065607167663
 22       0.000000004137
 23       0.000000718801
 24      -0.005431437236
 25      -0.000000171325
 26      -0.000000064756
 27       0.006289776103
 28      -0.000000000493
 29       0.231328659076
 30       0.037025873314
 31       0.007625893149
 32      -0.019246675811
 33       0.000000316153
 34       0.231328640179
 35       0.037025866848
 36       0.007625893133
 37       0.019246674540
 38      -0.000000483761
 Sym=     1a
 Ene= -5.09105102244939E-01
 Spin= Alpha
 Occup= 2.000000
  1      -0.000000009600
  2       0.000000020925
  3       0.000000026152
  4      -0.000000000889
  5      -0.432113478703
  6       0.000008980711
  7       0.000000003300
  8      -0.151575498017
  9       0.000003145580
 10       0.000000001408
 11       0.000000167756
 12       0.000000084811
 13       0.000000003352
 14      -0.008044465629
 15       0.000000002601
 16       0.000000006547
 17       0.000000000978
 18       0.000000026861
 19      -0.302505301052
 20       0.000006286014
 21       0.000000017030
 22      -0.171418058842
 23       0.000003564272
 24       0.000000000508
 25      -0.000000429366
 26      -0.000000224725
 27      -0.000000002664
 28       0.020663329909
 29      -0.245290168552
 30      -0.069922883719
 31      -0.010449433543
 32       0.008661973465
 33      -0.000000064463
 34       0.245290179749
 35       0.069922892010
 36       0.010449432942
 37       0.008661980214
 38      -0.000000294852
 Sym=     1a
 Ene= -4.66711406629216E-01
 Spin= Alpha
 Occup= 2.000000
  1      -0.038395046961
  2       0.111309381447
  3      -0.055707521898
  4       0.367760738349
  5      -0.000000000360
  6      -0.000004024648
  7       0.065194993288
  8      -0.000000006096
  9      -0.000000720304
 10      -0.004669906573
 11      -0.000000286884
 12       0.000000209008
 13       0.018169092525
 14      -0.000000000661
 15      -0.109459830220
 16      -0.220545364606
 17      -0.320607540875
 18      -0.513602878949
 19      -0.000000052405
 20       0.000005554332
 21      -0.265147621574
 22      -0.000000027790
 23       0.000002864899
 24      -0.011429739449
 25      -0.000000405042
 26      -0.000000044854
 27       0.017636327903
 28       0.000000003171
 29      -0.108451021799
 30      -0.038533177040
 31       0.003224866088
 32       0.007707091171
 33      -0.000000195052
 34      -0.108451028756
 35      -0.038533179053
 36       0.003224863009
 37      -0.007707087829
 38       0.000000124959
 Sym=     1a
 Ene= -4.19010572739258E-01
 Spin= Alpha
 Occup= 2.000000
  1      -0.000000006807
  2       0.000000016488
  3       0.000000013467
  4      -0.000004059662
  5      -0.000007699935
  6      -0.370698341713
  7      -0.000002233925
  8      -0.000004258739
  9      -0.204909144522
 10       0.000000675867
 11      -0.035923986699
 12      -0.000000002515
 13      -0.000000390722
 14      -0.000000745916
 15       0.000000003818
 16       0.000000007262
 17       0.000000011804
 18      -0.000005422072
 19      -0.000010428389
 20      -0.501867564844
 21      -0.000003423613
 22      -0.000006582778
 23      -0.316817079680
 24      -0.000000524434
 25       0.027919187554
 26       0.000000001483
 27       0.000000302048
 28       0.000000580192
 29       0.000000003150
 30       0.000000005689
 31      -0.000000087422
 32      -0.000000165534
 33      -0.007970150836
 34       0.000000005037
 35       0.000000006140
 36      -0.000000087083
 37      -0.000000165724
 38      -0.007970150581
 Sym=     1a
 Ene= -2.80153539537569E-01
 Spin= Alpha
 Occup= 2.000000
  1       0.000000002480
  2       0.000000000689
  3      -0.000000009431
  4       0.000000018430
  5      -0.154002345364
  6       0.000003196852
  7       0.000000013210
  8       0.024432483003
  9      -0.000000512892
 10      -0.000000000432
 11      -0.000001095833
 12      -0.000000575743
 13      -0.000000001674
 14       0.052760685760
 15       0.000000001968
 16       0.000000006788
 17      -0.000000007845
 18      -0.000000056168
 19       0.566582905668
 20      -0.000011768992
 21      -0.000000034872
 22       0.417331435833
 23      -0.000008665530
 24       0.000000000246
 25       0.000000279890
 26       0.000000146369
 27       0.000000001934
 28      -0.013472707043
 29      -0.264496854903
 30      -0.218899729190
 31      -0.003592055820
 32       0.004256717118
 33      -0.000000048073
 34       0.264496844070
 35       0.218899744582
 36       0.003592060525
 37       0.004256711498
 38      -0.000000128532
 Sym=     1a
 Ene= -3.53109923709697E-02
 Spin= Alpha
 Occup= 0.000000
  1      -0.000000016986
  2       0.000000033165
  3       0.000000147002
  4      -0.000005451532
  5      -0.000010360346
  6      -0.498906365614
  7      -0.000006344161
  8      -0.000012024788
  9      -0.578931299507
 10      -0.000000580323
 11       0.030884328160
 12       0.000000001432
 13       0.000000336204
 14       0.000000641658
 15      -0.000000002270
 16      -0.000000008984
 17       0.000000006656
 18       0.000004737395
 19       0.000009031176
 20       0.434914025894
 21       0.000005109827
 22       0.000009753003
 23       0.469681795186
 24      -0.000000074895
 25       0.003984142615
 26       0.000000000113
 27       0.000000043303
 28       0.000000082797
 29      -0.000000034504
 30      -0.000000074054
 31      -0.000000292209
 32      -0.000000555773
 33      -0.026831395394
 34      -0.000000034990
 35      -0.000000077237
 36      -0.000000292010
 37      -0.000000558911
 38      -0.026831397233
 Sym=     1a
 Ene= 8.06608839369630E-02
 Spin= Alpha
 Occup= 0.000000
  1      -0.138598016780
  2       0.294226326491
  3       1.914537574333
  4      -0.223270534715
  5      -0.000000044065
  6       0.000002485267
  7      -0.639253763164
  8      -0.000000025298
  9       0.000007086359
 10       0.012933669794
 11       0.000000219628
 12       0.000000507283
 13       0.002043203609
 14      -0.000000000727
 15      -0.005813151391
 16      -0.020163394585
 17       0.052450358256
 18       0.068536030945
 19       0.000000032532
 20      -0.000000776732
 21       0.035276356741
 22       0.000000034415
 23      -0.000000433100
 24       0.001651760153
 25      -0.000000024160
 26       0.000000162786
 27       0.004974761472
 28       0.000000001147
 29      -0.102377862446
 30      -1.442782594770
 31       0.004334699741
 32      -0.010477496043
 33       0.000000172262
 34      -0.102377874161
 35      -1.442782679139
 36       0.004334703508
 37       0.010477498249
 38      -0.000000263272
 Sym=     1a
 Ene= 1.47454839577888E-01
 Spin= Alpha
 Occup= 0.000000
  1       0.000000005396
  2      -0.000000019562
  3       0.000000081258
  4      -0.000000034171
  5       0.449417778649
  6      -0.000009339082
  7      -0.000000246607
  8       1.209888595772
  9      -0.000025123080
 10      -0.000000004801
 11      -0.000000048201
 12      -0.000000025749
 13       0.000000005307
 14       0.002308462931
 15       0.000000019349
 16       0.000000038772
 17       0.000000184731
 18      -0.000000021422
 19      -0.142004668275
 20       0.000002951120
 21      -0.000000053845
 22      -0.303308262545
 23       0.000006298326
 24      -0.000000000636
 25       0.000000229704
 26       0.000000119282
 27       0.000000004755
 28      -0.011057842973
 29       0.003354907730
 30      -1.652088832513
 31       0.007489284802
 32      -0.006743458605
 33       0.000000056311
 34      -0.003354871851
 35       1.652088469905
 36      -0.007489297574
 37      -0.006743454413
 38       0.000000224056
 Sym=     1a
 Ene= 2.08506680385746E-01
 Spin= Alpha
 Occup= 0.000000
  1       0.029929457941
  2       0.003295917670
  3      -1.715300610480
  4      -0.097779631255
  5      -0.000000067228
  6       0.000001056612
  7      -1.675516453967
  8      -0.000000297363
  9       0.000018197650
 10      -0.013953835648
 11      -0.000000559722
 12       0.000000066171
 13       0.027310182229
 14       0.000000003791
 15       0.107987340281
 16       0.148527068163
 17       1.821274367866
 18      -0.151438698826
 19      -0.000000008097
 20       0.000001646926
 21      -0.618353005948
 22      -0.000000008534
 23       0.000006720295
 24      -0.009738694442
 25      -0.000000382065
 26       0.000000030475
 27       0.018323370611
 28       0.000000003783
 29       0.035689107518
 30       0.004280984181
 31      -0.017338558625
 32      -0.015840548253
 33       0.000000515594
 34       0.035689197197
 35       0.004280189957
 36      -0.017338568019
 37       0.015840555402
 38      -0.000000142642
 Sym=     1a
 Ene= 4.58516200518429E-01
 Spin= Alpha
 Occup= 0.000000
  1       0.089269930661
  2      -0.914431418460
  3       2.148315449241
  4       0.041531851329
  5      -0.000000043311
  6      -0.000000283273
  7      -0.934896034926
  8       0.000000191980
  9       0.000010115867
 10       0.088634895677
 11       0.000000941604
 12       0.000004596730
 13       0.067807995729
 14      -0.000000007356
 15      -0.019548948984
 16      -0.086719270442
 17       0.141532148694
 18      -0.043917638534
 19       0.000000024947
 20       0.000000455206
 21      -0.050321886129
 22      -0.000000049337
 23       0.000000530147
 24       0.013904785350
 25       0.000000292473
 26       0.000000427588
 27      -0.003490982485
 28       0.000000002750
 29      -0.753507783067
 30      -0.378196460445
 31      -0.039369680117
 32      -0.041642953058
 33       0.000001303156
 34      -0.753507848729
 35      -0.378196132842
 36      -0.039369675988
 37       0.041642953344
 38      -0.000000424511
 Sym=     1a
 Ene= 4.73969443866819E-01
 Spin= Alpha
 Occup= 0.000000
  1      -0.000000008647
  2      -0.000000026125
  3       0.000000286741
  4      -0.000010772879
  5      -0.000020550584
  6      -0.989929850605
  7       0.000012104897
  8       0.000023298679
  9       1.124992908852
 10       0.000000466353
 11      -0.023920869787
 12      -0.000000001547
 13      -0.000000247084
 14      -0.000000498472
 15      -0.000000003503
 16      -0.000000005703
 17      -0.000000012438
 18      -0.000000160543
 19      -0.000000308051
 20      -0.014803522726
 21      -0.000001271814
 22      -0.000002443202
 23      -0.118585931411
 24      -0.000000657984
 25       0.035100504376
 26       0.000000002044
 27       0.000000381124
 28       0.000000729293
 29      -0.000000140618
 30      -0.000000021472
 31      -0.000000178486
 32      -0.000000326094
 33      -0.015424319253
 34      -0.000000157840
 35      -0.000000093244
 36      -0.000000178617
 37      -0.000000316272
 38      -0.015424307889
 Sym=     1a
 Ene= 5.61022944037405E-01
 Spin= Alpha
 Occup= 0.000000
  1      -0.000000091240
  2       0.000000534360
  3      -0.000001319573
  4       0.000000003385
  5       0.085858693608
  6      -0.000001768618
  7      -0.000000047422
  8      -1.543460265878
  9       0.000032043872
 10       0.000000023044
 11       0.000001979659
 12       0.000001062125
 13      -0.000000016793
 14      -0.095249037163
 15       0.000000003810
 16      -0.000000005591
 17       0.000000338111
 18       0.000000081982
 19       0.368208564368
 20      -0.000007641476
 21      -0.000000067384
 22       0.243111707180
 23      -0.000005055218
 24      -0.000000012826
 25      -0.000000331473
 26      -0.000000171036
 27       0.000000012891
 28       0.015925904235
 29       0.806258083508
 30       0.167065323728
 31      -0.072410465441
 32      -0.026496442767
 33       0.000001352350
 34      -0.806258381485
 35      -0.167064299297
 36       0.072410488514
 37      -0.026496407906
 38      -0.000000250937
 Sym=     1a
 Ene= 6.05319440280710E-01
 Spin= Alpha
 Occup= 0.000000
  1      -0.294819911309
  2       1.724842687319
  3      -3.274910489749
  4      -0.141945912953
  5      -0.000000626839
  6       0.000001624867
  7       0.646259003915
  8       0.000001774268
  9      -0.000007171693
 10       0.101089082082
 11       0.000001763713
 12       0.000003921761
 13       0.013686833430
 14      -0.000000057051
 15      -0.035529437402
 16      -0.129235869860
 17       0.173953698426
 18       0.201361753495
 19      -0.000000129870
 20      -0.000002197965
 21       0.131948148314
 22      -0.000000173810
 23      -0.000001416009
 24      -0.019152702520
 25      -0.000000640030
 26      -0.000000160609
 27       0.025427975449
 28       0.000000019433
 29      -0.528383150415
 30       1.548111479953
 31       0.055374550774
 32      -0.096952482283
 33       0.000001408955
 34      -0.528383119949
 35       1.548113732430
 36       0.055374610601
 37       0.096952618590
 38      -0.000002620300
 Sym=     1a
 Ene= 6.29449408907838E-01
 Spin= Alpha
 Occup= 0.000000
  1      -0.000000173194
  2       0.000001012734
  3      -0.000002259732
  4      -0.000000262270
  5       0.950799102594
  6      -0.000019735511
  7       0.000000499225
  8      -2.016396485313
  9       0.000041873124
 10       0.000000074867
 11      -0.000002784573
 12      -0.000001470893
 13       0.000000043031
 14       0.134176027476
 15      -0.000000016209
 16      -0.000000071350
 17       0.000000164195
 18       0.000000072133
 19       0.015551039432
 20      -0.000000313589
 21       0.000000021460
 22       0.168086633944
 23      -0.000003502449
 24      -0.000000006213
 25       0.000000773201
 26       0.000000405917
 27       0.000000009177
 28      -0.037267540943
 29      -0.353214117158
 30       1.642228352043
 31       0.087807508137
 32      -0.102437379908
 33       0.000001163954
 34       0.353213322476
 35      -1.642226101454
 36      -0.087807436616
 37      -0.102437198196
 38       0.000003091989
 Sym=     1a
 Ene= 6.86777221057004E-01
 Spin= Alpha
 Occup= 0.000000
  1       0.090254574053
  2      -0.404703870086
  3      -0.801333243120
  4      -1.088721305385
  5      -0.000000163574
  6       0.000011842312
  7       1.047056696598
  8       0.000000233133
  9      -0.000011430484
 10      -0.053096641271
 11      -0.000002512985
 12       0.000000992485
 13       0.139718672357
 14      -0.000000016631
 15       0.093947761361
 16       0.303924974156
 17      -0.203999318917
 18      -0.373386593900
 19      -0.000000001758
 20       0.000004060616
 21      -0.470993585415
 22      -0.000000044866
 23       0.000005119011
 24       0.047537517234
 25       0.000001800831
 26      -0.000000023558
 27      -0.083465904952
 28      -0.000000004409
 29      -0.051433655215
 30       0.579997435706
 31      -0.021335790109
 32      -0.086908205033
 33       0.000002028086
 34      -0.051433863597
 35       0.579997940692
 36      -0.021335733669
 37       0.086908240874
 38      -0.000001582250
 Sym=     1a
 Ene= 9.01743681174444E-01
 Spin= Alpha
 Occup= 0.000000
  1       0.030520861920
  2      -0.627966129560
  3      -0.090003001942
  4      -0.149682636852
  5       0.000000004728
  6       0.000001619294
  7      -0.292105638397
  8      -0.000000044827
  9       0.000003180588
 10       0.106340134963
 11       0.000003846131
 12       0.000000303391
 13      -0.169504274751
 14      -0.000000007690
 15       0.135617570609
 16       0.563572356310
 17       0.045664543269
 18       0.734454070726
 19      -0.000000017826
 20      -0.000007989804
 21      -1.323071907406
 22      -0.000000019683
 23       0.000014382029
 24       0.000904023390
 25       0.000000005326
 26       0.000000055262
 27       0.001095416574
 28      -0.000000002939
 29      -0.023864837146
 30      -0.050998866174
 31       0.091440684788
 32       0.033490293347
 33      -0.000001687536
 34      -0.023864775242
 35      -0.050998952793
 36       0.091440659016
 37      -0.033490291881
 38      -0.000000296169
 Sym=     1a
 Ene= 1.01082827953893E+00
 Spin= Alpha
 Occup= 0.000000
  1      -0.000000002228
  2       0.000000000216
  3       0.000000051641
  4      -0.000000373313
  5      -0.000000737589
  6      -0.035230395524
  7       0.000004233698
  8       0.000008056377
  9       0.389174585179
 10      -0.000000264002
 11       0.014846723931
 12      -0.000000015406
 13       0.000000167807
 14       0.000000302360
 15       0.000000001756
 16       0.000000015413
 17      -0.000000040044
 18       0.000010364694
 19       0.000019753231
 20       0.952576705792
 21      -0.000013109536
 22      -0.000025006572
 23      -1.206376857540
 24       0.000000408255
 25      -0.021774208128
 26      -0.000000002379
 27      -0.000000235284
 28      -0.000000449886
 29       0.000000002630
 30      -0.000000012357
 31       0.000000964866
 32       0.000001857293
 33       0.090035741631
 34      -0.000000011988
 35      -0.000000024411
 36       0.000000965142
 37       0.000001886318
 38       0.090035809560
 Sym=     1a
 Ene= 1.11993648559924E+00
 Spin= Alpha
 Occup= 0.000000
  1      -0.000000009615
  2       0.000000015703
  3      -0.000000167286
  4      -0.000000027999
  5      -0.116264402161
  6       0.000002405732
  7       0.000000053849
  8       1.429309850985
  9      -0.000029668006
 10       0.000000018077
 11      -0.000003908064
 12      -0.000002273493
 13      -0.000000036746
 14       0.188021957576
 15      -0.000000016389
 16      -0.000000098818
 17       0.000000112564
 18       0.000000015527
 19       0.870613759098
 20      -0.000018051528
 21      -0.000000042650
 22      -1.497471823179
 23       0.000031063809
 24       0.000000003481
 25       0.000001423768
 26       0.000000724879
 27       0.000000006884
 28      -0.068533135907
 29      -0.221505589539
 30      -0.576769109705
 31       0.046051688468
 32       0.057286489727
 33      -0.000001936742
 34       0.221505635352
 35       0.576769205627
 36      -0.046051728898
 37       0.057286502582
 38      -0.000000431272
 Sym=     1a
 Ene= 1.16912173091148E+00
 Spin= Alpha
 Occup= 0.000000
  1       0.000000000584
  2      -0.000000001088
  3       0.000000021850
  4       0.000000002050
  5      -0.000000071281
  6      -0.000000027678
  7       0.000000003050
  8       0.000000742552
  9       0.000000036954
 10      -0.000016419407
 11       0.000000005365
 12       0.456420822639
 13      -0.000009479136
 14       0.000005120693
 15       0.000000001397
 16       0.000000009946
 17      -0.000000021263
 18      -0.000000000799
 19       0.000000393284
 20       0.000000050014
 21       0.000000006680
 22      -0.000000741748
 23      -0.000000082062
 24      -0.000001412227
 25      -0.000000006851
 26       0.039256876976
 27      -0.000000815352
 28       0.000000379583
 29      -0.000000109078
 30      -0.000000316612
 31       0.000005752044
 32       0.000010819413
 33       0.518871271234
 34       0.000000107154
 35       0.000000307136
 36      -0.000005750838
 37      -0.000010737101
 38      -0.518871247444
 Sym=     1a
 Ene= 1.30141661576304E+00
 Spin= Alpha
 Occup= 0.000000
  1      -0.031976864643
  2       0.702259638912
  3       2.204798693293
  4       0.333396399135
  5       0.000000017548
  6      -0.000003617473
  7       1.303353214695
  8       0.000000421710
  9      -0.000014159933
 10      -0.063948161677
 11      -0.000003950988
 12       0.000002956894
 13       0.253105121973
 14       0.000000062528
 15       0.275543348154
 16       1.898415974821
 17      -4.193736269731
 18      -0.198043645642
 19       0.000000048124
 20       0.000002144228
 21       1.574126290722
 22      -0.000000079755
 23      -0.000017089664
 24      -0.024103667738
 25      -0.000001075056
 26       0.000000321829
 27       0.057269681938
 28      -0.000000011410
 29      -0.099415117506
 30      -0.125897442432
 31       0.031467159073
 32       0.058205546579
 33      -0.000001529380
 34      -0.099415003416
 35      -0.125897067456
 36       0.031467254817
 37      -0.058205562512
 38       0.000000896797
 Sym=     1a
 Ene= 1.44066066112438E+00
 Spin= Alpha
 Occup= 0.000000
  1       0.000000010784
  2      -0.000000093953
  3       0.000000289032
  4       0.000000462269
  5       0.000000869767
  6       0.041938005923
  7       0.000005145362
  8       0.000010225223
  9       0.491596023396
 10      -0.000010960584
 11       0.576893628060
 12      -0.000000013528
 13       0.000006208564
 14       0.000011984424
 15       0.000000005847
 16       0.000000028406
 17       0.000000026459
 18       0.000000426637
 19       0.000000900960
 20       0.043188802111
 21      -0.000005211545
 22      -0.000010057444
 23      -0.483799159454
 24       0.000003167337
 25      -0.169025223970
 26      -0.000000018452
 27      -0.000001842584
 28      -0.000003511622
 29      -0.000000092839
 30      -0.000000110827
 31      -0.000005454048
 32      -0.000010525814
 33      -0.509736287401
 34      -0.000000090495
 35      -0.000000093731
 36      -0.000005450865
 37      -0.000010645795
 38      -0.509736324894
 Sym=     1a
 Ene= 1.55642860459326E+00
 Spin= Alpha
 Occup= 0.000000
  1      -0.000000021624
  2       0.000000103247
  3      -0.000000096349
  4      -0.000000023594
  5      -0.147309736132
  6       0.000003058713
  7       0.000000208296
  8       1.222085328730
  9      -0.000025378496
 10       0.000000115750
 11       0.000002939227
 12       0.000001564026
 13       0.000000042127
 14      -0.141662999368
 15      -0.000000011770
 16      -0.000000053976
 17      -0.000000068946
 18       0.000000049336
 19       0.156924030816
 20      -0.000003254335
 21      -0.000000057335
 22      -0.460582654794
 23       0.000009560435
 24       0.000000028950
 25       0.000000303174
 26       0.000000158278
 27       0.000000008070
 28      -0.014567529667
 29      -0.370910866372
 30      -0.383791505780
 31      -0.466453479638
 32      -0.523652906236
 33       0.000016036010
 34       0.370911005319
 35       0.383791540432
 36       0.466453212797
 37      -0.523652982191
 38       0.000005712462
 Sym=     1a
 Ene= 1.62335458970691E+00
 Spin= Alpha
 Occup= 0.000000
  1      -0.076178250773
  2       0.534166544739
  3      -0.273003832871
  4       0.087498715821
  5      -0.000000004114
  6      -0.000000913781
  7       1.136909728509
  8      -0.000000356282
  9      -0.000012326343
 10       0.299081943250
 11       0.000001939608
 12       0.000018022630
 13       0.349678213451
 14      -0.000000124402
 15      -0.009463057721
 16       0.080574672509
 17      -1.008724458690
 18       0.296750916593
 19       0.000000013688
 20      -0.000003247965
 21       0.057261176389
 22       0.000000199485
 23      -0.000000655162
 24       0.055433157366
 25       0.000000468531
 26       0.000003010597
 27       0.048946950405
 28       0.000000099130
 29       0.312854267895
 30       0.196392114294
 31      -0.587445366641
 32      -0.074348425601
 33       0.000007811643
 34       0.312854219454
 35       0.196391707747
 36      -0.587445810688
 37       0.074348616616
 38       0.000004722545
 Sym=     1a
 Ene= 1.81353213045316E+00
 Spin= Alpha
 Occup= 0.000000
  1       0.000000018914
  2      -0.000000189553
  3       0.000000583214
  4       0.000000169475
  5      -0.325235114758
  6       0.000006754471
  7       0.000000094527
  8      -0.091481149170
  9       0.000001900862
 10      -0.000000458097
 11       0.000010796373
 12       0.000005718822
 13      -0.000000002952
 14      -0.519612874916
 15       0.000000020901
 16       0.000000180052
 17      -0.000000580835
 18       0.000000038886
 19       0.212022422062
 20      -0.000004403620
 21       0.000000193957
 22      -0.029595622300
 23       0.000000612736
 24      -0.000000095445
 25      -0.000005651369
 26      -0.000002934418
 27      -0.000000065689
 28       0.272013650775
 29      -0.150157403495
 30       0.335554059702
 31       0.506989511792
 32      -0.209160167973
 33      -0.000001231806
 34       0.150157177142
 35      -0.335554105912
 36      -0.506989327494
 37      -0.209159809550
 38       0.000009921113
 Sym=     1a
 Ene= 1.85949970487736E+00
 Spin= Alpha
 Occup= 0.000000
  1      -0.014923017520
  2       0.212096773085
  3      -0.581008754329
  4      -0.459116839672
  5      -0.000000154147
  6       0.000004863148
  7      -0.739493665330
  8      -0.000000332961
  9       0.000007844145
 10       0.703600569073
 11       0.000014719827
 12       0.000023690131