
                                 *****************
                                 * O   R   C   A *
                                 *****************

                                            #,                                       
                                            ###                                      
                                            ####                                     
                                            #####                                    
                                            ######                                   
                                           ########,                                 
                                     ,,################,,,,,                         
                               ,,#################################,,                 
                          ,,##########################################,,             
                       ,#########################################, ''#####,          
                    ,#############################################,,   '####,        
                  ,##################################################,,,,####,       
                ,###########''''           ''''###############################       
              ,#####''   ,,,,##########,,,,          '''####'''          '####       
            ,##' ,,,,###########################,,,                        '##       
           ' ,,###''''                  '''############,,,                           
         ,,##''                                '''############,,,,        ,,,,,,###''
      ,#''                                            '''#######################'''  
     '                                                          ''''####''''         
             ,#######,   #######,   ,#######,      ##                                
            ,#'     '#,  ##    ##  ,#'     '#,    #''#        ,####,   ,####,        
            ##       ##  ##   ,#'  ##            #'  '#       #'       #'  '#        
            ##       ##  #######   ##           ,######,      #####,   #    #        
            '#,     ,#'  ##    ##  '#,     ,#' ,#      #,     #,   #   #,  ,#        
             '#######'   ##     ##  '#######'  #'      '#     '####' # '####'        



                #########################################################
                #                        -***-                          #
                #          Department of theory and spectroscopy        #
                #                                                       #
                #                      Frank Neese                      #
                #                                                       #
                #     Directorship, Architecture, Infrastructure        #
                #                    SHARK, DRIVERS                     #
                #        Core code/Algorithms in most modules           #
                #                                                       #
                #        Max Planck Institute fuer Kohlenforschung      #
                #                Kaiser Wilhelm Platz 1                 #
                #                 D-45470 Muelheim/Ruhr                 #
                #                      Germany                          #
                #                                                       #
                #                  All rights reserved                  #
                #                        -***-                          #
                #########################################################


                         Program Version 6.0.1  -  RELEASE   -


 With contributions from (in alphabetic order):
[Max-Planck-Institut fuer Kohlenforschung]                               
  Daniel Aravena         : Magnetic Suceptibility                        
  Michael Atanasov       : Ab Initio Ligand Field Theory (pilot matlab implementation)
  Alexander A. Auer      : GIAO ZORA, VPT2 properties, NMR spectrum      
  Ute Becker             : All parallelization in ORCA, NUMFREQ, NUMCALC 
  Giovanni Bistoni       : ED, misc. LED, open-shell LED, HFLD           
  Martin Brehm           : Molecular dynamics                            
  Dmytro Bykov           : pre 5.0 version of the SCF Hessian            
  Marcos Casanova-Páez   : Triplet and SCS-CIS(D). UHF-(DLPNO)-IP/EA/STEOM-CCSD. UHF-CVS-IP/STEOM-CCSD   
  Vijay G. Chilkuri      : MRCI spin determinant printing, contributions to CSF-ICE 
  Pauline Colinet        : FMM embedding                                 
  Dipayan Datta          : RHF DLPNO-CCSD density                        
  Achintya Kumar Dutta   : EOM-CC, STEOM-CC                              
  Nicolas Foglia         : Exact transition moments, OPA infrastructure, MCD improvements    
  Dmitry Ganyushin       : Spin-Orbit,Spin-Spin,Magnetic field MRCI      
  Miquel Garcia-Rates    : C-PCM and meta-GGA Hessian, CCSD/C-PCM, Gaussian charge scheme 
  Tiago L. C. Gouveia    : GS-ROHF, GS-ROCIS                             
  Yang Guo               : DLPNO-NEVPT2, F12-NEVPT2, CIM, IAO-localization        
  Andreas Hansen         : Spin unrestricted coupled pair/coupled cluster methods 
  Ingolf Harden          : AUTO-CI MPn and infrastructure                
  Benjamin Helmich-Paris : MC-RPA, TRAH-(SCF,CASSCF), AVAS, COSX integrals, SCF dyn. polar. 
  Lee Huntington         : MR-EOM, pCC                                   
  Robert Izsak           : Overlap fitted RIJCOSX, COSX-SCS-MP3, EOM     
  Riya Kayal             : Wick's Theorem for AUTO-CI, AUTO-CI UHF-CCSDT 
  Emily Kempfer          : AUTO-CI, RHF CISDT and CCSDT                  
  Christian Kollmar      : KDIIS, OOCD, Brueckner-CCSD(T), CCSD density, CASPT2, CASPT2-K, improved NEVPT2 
  Axel Koslowski         : Symmetry handling                             
  Simone Kossmann        : meta-GGA functionals, TD-DFT gradient, OOMP2, (MP2 Hessian; deprecated post 5.0) 
  Lucas Lang             : DCDCAS                                        
  Marvin Lechner         : AUTO-CI (C++ implementation), FIC-MRCC        
  Spencer Leger          : CASSCF response                               
  Dagmar Lenk            : GEPOL surface, SMD, ORCA-2-JSON               
  Dimitrios Liakos       : Extrapolation schemes; Compound Job, initial MDCI parallelization 
  Dimitrios Manganas     : Further ROCIS development; embedding schemes. LFT, Crystal Embedding 
  Dimitrios Pantazis     : SARC Basis sets                               
  Anastasios Papadopoulos: AUTO-CI, single reference methods and gradients 
  Taras Petrenko         : pre 6.0 DFT Hessian and TD-DFT gradient, (ASA, deprecated), ECA, 1-Electron XAS/XES, NRVS 
  Peter Pinski           : DLPNO-MP2, DLPNO-MP2 Gradient                 
  Christoph Reimann      : Effective Core Potentials                     
  Marius Retegan         : Local ZFS, SOC                                
  Christoph Riplinger    : Optimizer, TS searches, QM/MM, DLPNO-CCSD(T), (RO)-DLPNO pert. Triples 
  Michael Roemelt        : Original ROCIS implementation                 
  Masaaki Saitow         : Open-shell DLPNO-CCSD energy and density      
  Barbara Sandhoefer     : DKH picture change effects                    
  Kantharuban Sivalingam : CASSCF convergence/infrastructure, NEVPT2 and variants, FIC-MRCI 
  Bernardo de Souza      : ESD, SOC TD-DFT                               
  Georgi L. Stoychev     : AutoAux, RI-MP2 NMR, DLPNO-MP2 response, X2C  
  Van Anh Tran           : RI-MP2 g-tensors                              
  Willem Van den Heuvel  : Paramagnetic NMR                              
  Zikuan Wang            : NOTCH, Electric field optimization            
  Frank Wennmohs         : Technical directorship and infrastructure     
  Hang Xu                : AUTO-CI-Response properties                   
                                                                         
[FACCTs GmbH]                                                            
  Markus Bursch, Miquel Garcia-Rates, Christoph Riplinger, Bernardo de Souza, Georgi L. Stoychev 
                                                                 
  APM, Basis sets (HGBS, AHGBS, def-TZVP (Ac-Lr), def2-XVPD (La-Lu)), CI-OPT, improved COSX, DLPNO-Multilevel,           
  DOCKER, DRACO, updates on ESD, GOAT, IRC, LR-CPCM, MBIS, meta-GGA TD-DFT gradient, ML-optimized integration grids, 
  MM, NACMEs, nearIR, NEB, NEB-TS, NL-DFT gradient (VV10), 2- and 3-layer-ONIOM, interface openCOSMO-RS, QMMM,   
  Crystal-QMMM, SF, symmetry and pop. for TD-DFT, r2SCAN hybrids, SOLVATOR                                   
                                                                         
[Other institutions]                                                     
  V. Asgeirsson          : NEB                                           
  Christoph Bannwarth    : sTDA-DFT, sTD-DFT, PBEh-3c, B97-3c, D3        
  Sebastian Ehlert       : rSCAN, r2SCAN, r2SCAN-3c, D4, dhf basis sets  
  Marvin Friede          : D4 for Fr, Ra, Ac-Lr                          
  Lars Goerigk           : TD-DFT with DH, B97 family of functionals     
  Stefan Grimme          : VdW corrections, initial TS optimization, DFT functionals, gCP, sTDA/sTD-DF 
  Waldemar Hujo          : DFT-NL                                        
  H. Jonsson             : NEB                                           
  Holger Kruse           : gCP                                           
  Marcel Mueller         : wB97X-3c, vDZP basis set                      
  Hagen Neugebauer       : wr2SCAN                                       
  Tobias Risthaus        : range-separated hybrid DFT                    
  Lukas Wittmann         : regularized MP2, r2SCAN double-hybrids, wr2SCAN        
                                                                         
We gratefully acknowledge several colleagues who have allowed us to      
interface, adapt or use parts of their codes:                            
  Ed Valeev, F. Pavosevic, A. Kumar             : LibInt (2-el integral package), F12 methods 
  Garnet Chan, S. Sharma, J. Yang, R. Olivares  : DMRG                   
  Ulf Ekstrom                                   : XCFun DFT Library      
  Mihaly Kallay                                 : mrcc  (arbitrary order and MRCC methods)
  Frank Weinhold                                : gennbo (NPA and NBO analysis)           
  Simon Mueller                                 : openCOSMO-RS                            
  Christopher J. Cramer and Donald G. Truhlar   : smd solvation model                     
  S Lehtola, MJT Oliveira, MAL Marques          : LibXC Library                           
  Liviu Ungur et al                             : ANISO software                          


 Your calculation uses the libint2 library for the computation of 2-el integrals
 For citations please refer to: http://libint.valeyev.net

 Your ORCA version has been built with support for libXC version: 6.2.2
 For citations please refer to: https://libxc.gitlab.io

 This ORCA versions uses:
   CBLAS   interface :  Fast vector & matrix operations
   LAPACKE interface :  Fast linear algebra routines
   SCALAPACK package :  Parallel linear algebra routines
   Shared memory     :  Shared parallel matrices
   BLAS/LAPACK       :  OpenBLAS 0.3.27  USE64BITINT DYNAMIC_ARCH NO_AFFINITY Haswell SINGLE_THREADED
        Core in use  :  Haswell
   Copyright (c) 2011-2014, The OpenBLAS Project




***************************************
The coordinates will be read from file: H2CO.xyz
***************************************


================================================================================

----- Orbital basis set information -----
Your calculation utilizes the basis: def2-SVP
   F. Weigend and R. Ahlrichs, Phys. Chem. Chem. Phys. 7, 3297 (2005).

----- AuxJ basis set information -----
Your calculation utilizes the auxiliary basis: SARC/J 
   decontracted def2/J up to Kr:
   F. Weigend, Phys. Chem. Chem. Phys. 8, 1057 (2006)
   and SARC auxiliary basis sets beyond Kr:
   D. A. Pantazis and F. Neese, J. Chem. Theory Comput. 5, 2229 (2009).
   D. A. Pantazis, X. Y. Chen, C. R. Landis and F. Neese, J. Chem. Theory Comput. 4, 908 (2008).
   D. A. Pantazis and F. Neese, Theor. Chem. Acc. 131, 1292 (2012).
   D. A. Pantazis and F. Neese, J. Chem. Theory Comput. 7, 677 (2011).

----- AuxC basis set information -----
Your calculation utilizes the auxiliary basis: def2-SVP/C
  H-La, Hf-Rn : A. Hellweg, C. Hattig, S. Hofener and W. Klopper, Theor. Chem. Acc. 117, 587 (2007).
        Ce-Lu : J. Chmela and M. E. Harding, Mol. Phys. (2018).

================================================================================
                                        WARNINGS
                       Please study these warnings very carefully!
================================================================================

WARNING: Old DensityContainer found on disk!
         Will remove this file - 
         If you want to keep old densities, please start your calculation with a different basename. 


WARNING: In scalar relativistic gradient/hessian runs we need the one-center approximation
  ===> : %rel OneCenter is turned on

WARNING: Requested PictureChange>0 is not available for DKH one-center approximation (OneCenter=true).
         Continueing the run with OneCenter=true and no picture change (PictureChange=0).
         If picture change is important, repeat the calculation with OneCenter=false. 

WARNING: Geometry Optimization
  ===> : Switching off AutoStart
         For restart on a previous wavefunction, please use MOREAD



***************************************
The coordinates will be read from file: H2CO.xyz
***************************************


================================================================================

----- Orbital basis set information -----
Your calculation utilizes the basis: def2-SVP
   F. Weigend and R. Ahlrichs, Phys. Chem. Chem. Phys. 7, 3297 (2005).

----- AuxJ basis set information -----
Your calculation utilizes the auxiliary basis: SARC/J 
   decontracted def2/J up to Kr:
   F. Weigend, Phys. Chem. Chem. Phys. 8, 1057 (2006)
   and SARC auxiliary basis sets beyond Kr:
   D. A. Pantazis and F. Neese, J. Chem. Theory Comput. 5, 2229 (2009).
   D. A. Pantazis, X. Y. Chen, C. R. Landis and F. Neese, J. Chem. Theory Comput. 4, 908 (2008).
   D. A. Pantazis and F. Neese, Theor. Chem. Acc. 131, 1292 (2012).
   D. A. Pantazis and F. Neese, J. Chem. Theory Comput. 7, 677 (2011).

----- AuxC basis set information -----
Your calculation utilizes the auxiliary basis: def2-SVP/C
  H-La, Hf-Rn : A. Hellweg, C. Hattig, S. Hofener and W. Klopper, Theor. Chem. Acc. 117, 587 (2007).
        Ce-Lu : J. Chmela and M. E. Harding, Mol. Phys. (2018).

================================================================================
                                        WARNINGS
                       Please study these warnings very carefully!
================================================================================

WARNING: Old DensityContainer found on disk!
         Will remove this file - 
         If you want to keep old densities, please start your calculation with a different basename. 


WARNING: Requested PictureChange>0 is not available for DKH one-center approximation (OneCenter=true).
         Continueing the run with OneCenter=true and no picture change (PictureChange=0).
         If picture change is important, repeat the calculation with OneCenter=false. 
INFO   : Checking CIS options ...

================================================================================
                                       INPUT FILE
================================================================================
NAME = H2CO.inp
|  1> !def2-SVP PBE0 SARC/J def2-SVP/C Opt
|  2> * xyzfile 0 1 H2CO.xyz
|  3> %scf
|  4> MaxIter 100
|  5> end
|  6> %rel
|  7> method DKH
|  8> order 2
|  9> picturechange 2
| 10> end
| 11> $new_job
| 12> !def2-SVP PBE0 RI-SOMF(1X) SARC/J def2-SVP/C
| 13> %TDDFT
| 14> NROOTS  25
| 15> DOSOC   TRUE
| 16> TDA     TRUE
| 17> TRIPLETS TRUE
| 18> END
| 19> * xyzfile 0 1 H2CO.xyz
| 20> %scf
| 21> MaxIter 100
| 22> end
| 23> %rel
| 24> method DKH
| 25> order 2
| 26> picturechange 2
| 27> SOCType 3
| 28> SOCFlags 1,3,3,0
| 29> SOCMaxCenter 4
| 30> end
| 31> 
| 32>                          ****END OF INPUT****
================================================================================


                 $$$$$$$$$$$$$$$$$$$$$$$$$$$$$$$$$$$$$$$$$$$$$$ 
                 $ THERE ARE  2 JOBS TO BE PROCESSED THIS RUN $
                 $$$$$$$$$$$$$$$$$$$$$$$$$$$$$$$$$$$$$$$$$$$$$$ 




                 $$$$$$$$$$$$$$$$  JOB NUMBER  1 $$$$$$$$$$$$$$


                       *****************************
                       * Geometry Optimization Run *
                       *****************************

Geometry optimization settings:
Update method            Update   .... BFGS
Choice of coordinates    CoordSys .... (2022) Redundant Internals
Initial Hessian          InHess   .... Almloef's Model
Max. no of cycles        MaxIter  .... 50

Convergence Tolerances:
Energy Change            TolE     ....  5.0000e-06 Eh
Max. Gradient            TolMAXG  ....  3.0000e-04 Eh/bohr
RMS Gradient             TolRMSG  ....  1.0000e-04 Eh/bohr
Max. Displacement        TolMAXD  ....  4.0000e-03 bohr
RMS Displacement         TolRMSD  ....  2.0000e-03 bohr
Strict Convergence                .... False

------------------------------------------------------------------------------
                        ORCA OPTIMIZATION COORDINATE SETUP
------------------------------------------------------------------------------

The optimization will be done in redundant internal coordinates (2022)
Making redundant internal coordinates   ...  (2022 redundants) done
Evaluating the initial hessian          ...  (Almloef) done
Evaluating the coordinates              ...  done
Calculating the B-matrix                .... done
Calculating the G-matrix                .... done
Diagonalizing the G-matrix              .... done
The first mode is                       ....    1
The number of degrees of freedom        ....    6

    -----------------------------------------------------------------
                    Redundant Internal Coordinates


    -----------------------------------------------------------------
         Definition                    Initial Value    Approx d2E/dq
    -----------------------------------------------------------------
      1. B(O   1,C   0)                  1.1987         1.129848   
      2. B(H   2,C   0)                  1.1078         0.337256   
      3. B(H   3,C   0)                  1.1078         0.337256   
      4. A(O   1,C   0,H   3)          122.0650         0.384402   
      5. A(H   2,C   0,H   3)          115.8699         0.284939   
      6. A(O   1,C   0,H   2)          122.0650         0.384402   
      7. I(O   1,H   3,H   2,C   0)     -0.0000         0.115689   
    -----------------------------------------------------------------

Number of atoms                         .... 4
Number of degrees of freedom            .... 7


         *************************************************************
         *                GEOMETRY OPTIMIZATION CYCLE   1            *
         *************************************************************
---------------------------------
CARTESIAN COORDINATES (ANGSTROEM)
---------------------------------
  C     -0.428502   -1.070959    0.000010
  O      0.770237   -1.070959   -0.000003
  H     -1.016634   -0.132124   -0.000003
  H     -1.016634   -2.009794    0.000036

----------------------------
CARTESIAN COORDINATES (A.U.)
----------------------------
  NO LB      ZA    FRAG     MASS         X           Y           Z
   0 C     6.0000    0    12.011   -0.809751   -2.023819    0.000019
   1 O     8.0000    0    15.999    1.455537   -2.023819   -0.000006
   2 H     1.0000    0     1.008   -1.921160   -0.249678   -0.000006
   3 H     1.0000    0     1.008   -1.921160   -3.797960    0.000068

--------------------------------
INTERNAL COORDINATES (ANGSTROEM)
--------------------------------
 C      0   0   0     0.000000000000     0.00000000     0.00000000
 O      1   0   0     1.198739000070     0.00000000     0.00000000
 H      1   2   0     1.107840424799   122.06503441     0.00000000
 H      1   2   3     1.107840425027   122.06503443   180.00001486

---------------------------
INTERNAL COORDINATES (A.U.)
---------------------------
 C      0   0   0     0.000000000000     0.00000000     0.00000000
 O      1   0   0     2.265288416184     0.00000000     0.00000000
 H      1   2   0     2.093515002956   122.06503441     0.00000000
 H      1   2   3     2.093515003389   122.06503443   180.00001486

---------------------
BASIS SET INFORMATION
---------------------
There are 3 groups of distinct atoms

 Group   1 Type C   : 7s4p1d contracted to 3s2p1d pattern {511/31/1}
 Group   2 Type O   : 7s4p1d contracted to 3s2p1d pattern {511/31/1}
 Group   3 Type H   : 4s1p contracted to 2s1p pattern {31/1}

Atom   0C    basis set group =>   1
Atom   1O    basis set group =>   2
Atom   2H    basis set group =>   3
Atom   3H    basis set group =>   3
---------------------------------
AUXILIARY/J BASIS SET INFORMATION
---------------------------------
There are 3 groups of distinct atoms

 Group   1 Type C   : 12s5p4d2f1g contracted to 12s5p4d2f1g pattern {111111111111/11111/1111/11/1}
 Group   2 Type O   : 12s5p4d2f1g contracted to 12s5p4d2f1g pattern {111111111111/11111/1111/11/1}
 Group   3 Type H   : 5s2p1d contracted to 5s2p1d pattern {11111/11/1}

Atom   0C    basis set group =>   1
Atom   1O    basis set group =>   2
Atom   2H    basis set group =>   3
Atom   3H    basis set group =>   3
---------------------------------
AUXILIARY/C BASIS SET INFORMATION
---------------------------------
There are 3 groups of distinct atoms

 Group   1 Type C   : 8s6p5d3f contracted to 6s5p4d1f pattern {311111/21111/2111/3}
 Group   2 Type O   : 8s6p5d3f contracted to 6s5p4d1f pattern {311111/21111/2111/3}
 Group   3 Type H   : 4s3p2d contracted to 3s2p1d pattern {211/21/2}

Atom   0C    basis set group =>   1
Atom   1O    basis set group =>   2
Atom   2H    basis set group =>   3
Atom   3H    basis set group =>   3
------------------------------------------------------------------------------
                             ORCA STARTUP CALCULATIONS
                           -- RI-GTO INTEGRALS CHOSEN --
------------------------------------------------------------------------------
------------------------------------------------------------------------------
                   ___                                                        
                  /   \      - P O W E R E D   B Y -                         
                 /     \                                                     
                 |  |  |   _    _      __       _____    __    __             
                 |  |  |  | |  | |    /  \     |  _  \  |  |  /  |          
                  \  \/   | |  | |   /    \    | | | |  |  | /  /          
                 / \  \   | |__| |  /  /\  \   | |_| |  |  |/  /          
                |  |  |   |  __  | /  /__\  \  |    /   |      \           
                |  |  |   | |  | | |   __   |  |    \   |  |\   \          
                \     /   | |  | | |  |  |  |  | |\  \  |  | \   \       
                 \___/    |_|  |_| |__|  |__|  |_| \__\ |__|  \__/        
                                                                              
                      - O R C A' S   B I G   F R I E N D -                    
                                      &                                       
                       - I N T E G R A L  F E E D E R -                       
                                                                              
 v1 FN, 2020, v2 2021, v3 2022-2024                                           
------------------------------------------------------------------------------


----------------------
SHARK INTEGRAL PACKAGE
----------------------

Number of atoms                             ...      4
Number of basis functions                   ...     38
Number of shells                            ...     18
Maximum angular momentum                    ...      2
Integral batch strategy                     ... SHARK/LIBINT Hybrid
RI-J (if used) integral strategy            ... SPLIT-RIJ (Revised 2003 algorithm where possible)
Printlevel                                  ...      1
Contraction scheme used                     ... SEGMENTED contraction
Prescreening option                         ... SCHWARTZ
   Thresh                                   ... 2.500e-11
   Tcut                                     ... 2.500e-12
   Tpresel                                  ... 2.500e-12 
Coulomb Range Separation                    ... NOT USED
Exchange Range Separation                   ... NOT USED
Multipole approximations                    ... NOT USED
Finite Nucleus Model                        ... NOT USED
CABS basis                                  ... NOT available
Auxiliary Coulomb fitting basis             ... AVAILABLE
   # of basis functions in Aux-J            ...    172
   # of shells in Aux-J                     ...     64
   Maximum angular momentum in Aux-J        ...      4
Auxiliary J/K fitting basis                 ... NOT available
Auxiliary Correlation fitting basis         ... AVAILABLE
   # of basis functions in Aux-C            ...    124
   # of shells in Aux-C                     ...     44
   Maximum angular momentum in Aux-C        ...      3
Auxiliary 'external' fitting basis          ... NOT available

Checking pre-screening integrals            ... done (  0.0 sec) Dimension = 18
Check shell pair data                       ... done (  0.0 sec)
Shell pair information
Shell pair cut-off parameter TPreSel        ...   2.5e-12
Total number of shell pairs                 ...       171
Shell pairs after pre-screening             ...       171
Total number of primitive shell pairs       ...       627
Primitive shell pairs kept                  ...       577
          la=0 lb=0:     55 shell pairs
          la=1 lb=0:     60 shell pairs
          la=1 lb=1:     21 shell pairs
          la=2 lb=0:     20 shell pairs
          la=2 lb=1:     12 shell pairs
          la=2 lb=2:      3 shell pairs

Calculating one electron integrals          ... done (  0.0 sec)
Calculating RI/J V-Matrix + Cholesky decomp.... done (  0.0 sec)
Calculating RI/C V-Matrix + Cholesky decomp.... done (  0.0 sec)
Calculating Nuclear repulsion               ... done (  0.0 sec) ENN=     31.397797317683 Eh

Diagonalization of the overlap matrix:
Smallest eigenvalue                        ... 1.817e-02
Time for diagonalization                   ...    0.002 sec
Threshold for overlap eigenvalues          ... 1.000e-07
Number of eigenvalues below threshold      ... 0
Time for construction of square roots      ...    0.000 sec
Total time needed                          ...    0.002 sec

-------------------
DFT GRID GENERATION
-------------------

General Integration Accuracy     IntAcc      ... 4.388
Radial Grid Type                 RadialGrid  ... OptM3 with GC (2021)
Angular Grid (max. ang.)         AngularGrid ... 4 (Lebedev-302)
Angular grid pruning method      GridPruning ... 4 (adaptive)
Weight generation scheme         WeightScheme... mBecke (2022)
Basis function cutoff            BFCut       ... 1.0000e-11
Integration weight cutoff        WCut        ... 1.0000e-14
Partially contracted basis set               ... off
Rotationally invariant grid construction     ... off
Angular grids for H and He will be reduced by one unit

Total number of grid points                  ...    18835
Total number of batches                      ...      296
Average number of points per batch           ...       63
Average number of grid points per atom       ...     4709

--------------------
COSX GRID GENERATION
--------------------

GRIDX 1
-------
General Integration Accuracy     IntAcc      ... 3.816
Radial Grid Type                 RadialGrid  ... OptM3 with GC (2021)
Angular Grid (max. ang.)         AngularGrid ... 1 (Lebedev-50)
Angular grid pruning method      GridPruning ... 4 (adaptive)
Weight generation scheme         WeightScheme... mBecke (2022)
Basis function cutoff            BFCut       ... 1.0000e-11
Integration weight cutoff        WCut        ... 1.0000e-14
Partially contracted basis set               ... on
Rotationally invariant grid construction     ... off
Angular grids for H and He will be reduced by one unit

Total number of grid points                  ...     2416
Total number of batches                      ...       22
Average number of points per batch           ...      109
Average number of grid points per atom       ...      604
UseSFitting                                  ... on

GRIDX 2
-------
General Integration Accuracy     IntAcc      ... 4.020
Radial Grid Type                 RadialGrid  ... OptM3 with GC (2021)
Angular Grid (max. ang.)         AngularGrid ... 2 (Lebedev-110)
Angular grid pruning method      GridPruning ... 4 (adaptive)
Weight generation scheme         WeightScheme... mBecke (2022)
Basis function cutoff            BFCut       ... 1.0000e-11
Integration weight cutoff        WCut        ... 1.0000e-14
Partially contracted basis set               ... on
Rotationally invariant grid construction     ... off
Angular grids for H and He will be reduced by one unit

Total number of grid points                  ...     5362
Total number of batches                      ...       44
Average number of points per batch           ...      121
Average number of grid points per atom       ...     1340
UseSFitting                                  ... on

GRIDX 3
-------
General Integration Accuracy     IntAcc      ... 4.338
Radial Grid Type                 RadialGrid  ... OptM3 with GC (2021)
Angular Grid (max. ang.)         AngularGrid ... 3 (Lebedev-194)
Angular grid pruning method      GridPruning ... 4 (adaptive)
Weight generation scheme         WeightScheme... mBecke (2022)
Basis function cutoff            BFCut       ... 1.0000e-11
Integration weight cutoff        WCut        ... 1.0000e-14
Partially contracted basis set               ... on
Rotationally invariant grid construction     ... off
Angular grids for H and He will be reduced by one unit

Total number of grid points                  ...    11891
Total number of batches                      ...       94
Average number of points per batch           ...      126
Average number of grid points per atom       ...     2973
UseSFitting                                  ... on
Initializing property integral containers    ... done (  0.0 sec)

SHARK setup successfully completed in   0.2 seconds

Maximum memory used throughout the entire STARTUP-calculation: 9.5 MB
------------------------------------------------------------------------------
                          ORCA RELATIVISTIC HAMILTONIAN
------------------------------------------------------------------------------

Relativistic Method            ... DKH
Order of DKH treatment         ...   2
Treatment of potential         ... V(e,N)
Eps parameter for DKH          ...   0.00000000010000
Nucleus model                  ... Point Nucleus
Speed of light used            ... 137.03598950000000


            ************************************************
            *        DOUGLAS-KROLL-HESS HAMILTONIAN        *
            *   Programmed by FN according to literature   *
            *        procedures. Special thanks to         *
            *       B.A. Hess, M. Reiher and A. Wolf       *
            *     University Erlangen-Nuernberg/Bonn       *
            ************************************************

Uncontracting the basis (first version)        ... done
Number of contracted basis functions           ...   38
Number of uncontracted basis functions         ...   62
Initializing the DKH file                      ... done
One center approximation for DKH is active
Finding unique atoms                      ... 3 atom types
 ATOMIC NUMBER   6
          ... doing integrals
          ... Computing the DKH transformation
          ... Transforming V and pVp to p**2 space
          ... First transformation of V and pVp
          ... Second transformation of Veff
          ... Adding kinetic energy
          ... Back transformation of Veff to r-space
          ... Recontracting the H-matrix
          ... Computing the DKH correction to the H-matrix
          ... adding submatrics to 1 actual atoms
 ATOMIC NUMBER   8
          ... doing integrals
          ... Computing the DKH transformation
          ... Transforming V and pVp to p**2 space
          ... First transformation of V and pVp
          ... Second transformation of Veff
          ... Adding kinetic energy
          ... Back transformation of Veff to r-space
          ... Recontracting the H-matrix
          ... Computing the DKH correction to the H-matrix
          ... adding submatrics to 1 actual atoms
 ATOMIC NUMBER   1
          ... doing integrals
          ... Computing the DKH transformation
          ... Transforming V and pVp to p**2 space
          ... First transformation of V and pVp
          ... Second transformation of Veff
          ... Adding kinetic energy
          ... Back transformation of Veff to r-space
          ... Recontracting the H-matrix
          ... Computing the DKH correction to the H-matrix
          ... adding submatrics to 2 actual atoms
Storing DKH matrices                           ... done
Getting S**(-1/2)                              ... done
Reading the original H-matrix                  ... done
Adding DKH correction to the H-matrix          ... done
Storing the new modified H-matrix              ... done

Maximum memory used throughout the entire REL-calculation: 10.3 MB
-------------------------------------------------------------------------------
                                 ORCA GUESS
                   Start orbitals & Density for SCF / CASSCF
-------------------------------------------------------------------------------

------------
SCF SETTINGS
------------
Hamiltonian:
 Density Functional     Method          .... DFT(GTOs)
 Exchange Functional    Exchange        .... PBE
   PBE kappa parameter   XKappa         ....  0.804000
   PBE mue parameter    XMuePBE         ....  0.219520
 Correlation Functional Correlation     .... PBE
   PBE beta parameter  CBetaPBE         ....  0.066725
 LDA part of GGA corr.  LDAOpt          .... PW91-LDA
 Gradients option       PostSCFGGA      .... off
 Hybrid DFT is turned on
   Fraction HF Exchange ScalHFX         ....  0.250000
   Scaling of DF-GGA-X  ScalDFX         ....  0.750000
   Scaling of DF-GGA-C  ScalDFC         ....  1.000000
   Scaling of DF-LDA-C  ScalLDAC        ....  1.000000
   Perturbative correction              ....  0.000000
   NL short-range parameter             ....  6.900000
 RI-approximation to the Coulomb term is turned on
   Number of AuxJ basis functions       .... 172
   RIJ-COSX (HFX calculated with COS-X)).... on

Relativistic Settings:
 Scalar relativistic method             .... Douglas-Kroll-Hess
 Order of DKH procedure    Order        ....    2
 Mode of DKH-treatment                  .... V=V(e,N)
 Speed of light used       Velit        ....       137.035989
 Cutoff-constant           Eps          ....            1e-10 


General Settings:
 Integral files         IntName         .... H2CO
 Hartree-Fock type      HFTyp           .... RHF
 Total Charge           Charge          ....    0
 Multiplicity           Mult            ....    1
 Number of Electrons    NEL             ....   16
 Basis Dimension        Dim             ....   38
 Nuclear Repulsion      ENuc            ....     31.3977973177 Eh

Convergence Acceleration:
 AO-DIIS                CNVDIIS         .... on
   Start iteration      DIISMaxIt       ....    12
   Startup error        DIISStart       ....  0.200000
   # of expansion vecs  DIISMaxEq       ....     5
   Bias factor          DIISBfac        ....   1.050
   Max. coefficient     DIISMaxC        ....  10.000
 MO-DIIS                CNVKDIIS        .... off
 Trust-Rad. Augm. Hess. CNVTRAH         .... auto
   Auto Start mean grad. ratio tolernc. ....  1.125000
   Auto Start start iteration           ....    50
   Auto Start num. interpolation iter.  ....    10
   Max. Number of Micro iterations      ....    24
   Max. Number of Macro iterations      .... Maxiter - #DIIS iter
   Number of Davidson start vectors     ....     2
   Converg. threshold    (grad. norm)   ....   1.000e-05
   Grad. Scal. Fac. for Micro threshold ....   0.100
   Minimum threshold for Micro iter.    ....   1.000e-02
   NR start threshold (gradient norm)   ....   1.000e-04
   Initial trust radius                 ....   0.400
   Minimum AH scaling param. (alpha)    ....   1.000
   Maximum AH scaling param. (alpha)    .... 1000.000
   Quad. conv. algorithm                .... NR
   White noise on init. David. guess    .... on
   Maximum white noise                  ....   0.010
   Pseudo random numbers                .... off
   Inactive MOs                         .... canonical
   Orbital update algorithm             .... Taylor
   Preconditioner                       .... Diag
   Full preconditioner red. dimension   ....   250
 SOSCF                  CNVSOSCF        .... on
   Start iteration      SOSCFMaxIt      ....   150
   Startup grad/error   SOSCFStart      ....  0.003300
   Hessian update       SOSCFHessUp     .... L-BFGS
 Level Shifting         CNVShift        .... on
   Level shift para.    LevelShift      ....    0.2500
   Turn off err/grad.   ShiftErr        ....    0.0010
 Zerner damping         CNVZerner       .... off
 Static damping         CNVDamp         .... on
   Fraction old density DampFac         ....    0.7000
   Max. Damping (<1)    DampMax         ....    0.9800
   Min. Damping (>=0)   DampMin         ....    0.0000
   Turn off err/grad.   DampErr         ....    0.1000

SCF Procedure:
 Maximum # iterations   MaxIter         ....   100
 SCF integral mode      SCFMode         .... Direct
   Integral package                     .... SHARK and LIBINT hybrid scheme
 Reset frequency        DirectResetFreq ....    20
 Integral Threshold     Thresh          ....  2.500e-11 Eh
 Primitive CutOff       TCut            ....  2.500e-12 Eh

Convergence Tolerance:
 Convergence Check Mode ConvCheckMode   .... Total+1el-Energy
 Convergence forced     ConvForced      .... 0
 Energy Change          TolE            ....  1.000e-08 Eh
 1-El. energy change                    ....  1.000e-05 Eh
 Orbital Gradient       TolG            ....  1.000e-05
 Orbital Rotation angle TolX            ....  1.000e-05
 DIIS Error             TolErr          ....  5.000e-07

------------------------------
INITIAL GUESS: MODEL POTENTIAL
------------------------------
Loading DKH relativistic densities                 ... done
Calculating cut-offs                               ... done
Initializing the effective Hamiltonian             ... done
Setting up the integral package (SHARK)            ... done
Starting the Coulomb interaction                   ... done (   0.0 sec)
Making the grid                                    ... done (   0.0 sec)
Mapping shells                                     ... done
Starting the XC term evaluation                    ... done (   0.0 sec)
  promolecular density results
     # of electrons  =     15.999114508
     EX              =    -13.821257553
     EC              =     -0.510494663
     EX+EC           =    -14.331752217
Transforming the Hamiltonian                       ... done (   0.0 sec)
Diagonalizing the Hamiltonian                      ... done (   0.0 sec)
Back transforming the eigenvectors                 ... done (   0.0 sec)
Now organizing SCF variables                       ... done
                      ------------------
                      INITIAL GUESS DONE (   0.0 sec)
                      ------------------
             **** ENERGY FILE WAS UPDATED (H2CO.en.tmp) ****
Finished Guess after   0.1 sec
Maximum memory used throughout the entire GUESS-calculation: 5.7 MB

-------------------------------------------------------------------------------------------
                                      ORCA LEAN-SCF
                              memory conserving SCF solver
-------------------------------------------------------------------------------------------

----------------------------------------D-I-I-S--------------------------------------------
Iteration    Energy (Eh)           Delta-E    RMSDP     MaxDP     DIISErr   Damp  Time(sec)
-------------------------------------------------------------------------------------------
               ***  Starting incremental Fock matrix formation  ***
    1    -114.2812273232289044     0.00e+00  7.58e-03  8.41e-02  2.47e-01  0.700   0.2
    2    -114.3139028919493967    -3.27e-02  4.48e-03  5.07e-02  1.01e-01  0.700   0.1
                               ***Turning on AO-DIIS***
    3    -114.3233983723048652    -9.50e-03  1.65e-03  1.56e-02  3.09e-02  0.700   0.1
    4    -114.3299605174180726    -6.56e-03  2.49e-03  2.11e-02  1.90e-02  0.000   0.1
    5    -114.3458664495981338    -1.59e-02  7.54e-04  5.84e-03  9.49e-03  0.000   0.1
                              *** Initializing SOSCF ***
---------------------------------------S-O-S-C-F--------------------------------------
Iteration    Energy (Eh)           Delta-E    RMSDP     MaxDP     MaxGrad    Time(sec)
--------------------------------------------------------------------------------------
    6    -114.3459818100646714    -1.15e-04  2.34e-04  2.10e-03  2.10e-03     0.1
               *** Restarting incremental Fock matrix formation ***
    7    -114.3460041846471711    -2.24e-05  1.51e-04  1.31e-03  3.09e-04     0.2
    8    -114.3460046871726661    -5.03e-07  3.74e-05  3.61e-04  2.39e-04     0.2
    9    -114.3460048630933272    -1.76e-07  3.44e-05  3.05e-04  1.40e-04     0.2
   10    -114.3460049494212285    -8.63e-08  1.20e-05  1.56e-04  7.10e-05     0.1
   11    -114.3460049857970944    -3.64e-08  3.92e-06  3.16e-05  1.94e-05     0.1
   12    -114.3460049861792243    -3.82e-10  8.16e-07  7.14e-06  2.92e-06     0.2
                 **** Energy Check signals convergence ****

               *****************************************************
               *                     SUCCESS                       *
               *           SCF CONVERGED AFTER  12 CYCLES          *
               *****************************************************

Recomputing exchange energy using gridx3       ... done (    0.202 sec)
Old exchange energy                            :     -3.514501015 Eh
New exchange energy                            :     -3.514469348 Eh
Exchange energy change after final integration :      0.000031666 Eh
Total energy after final integration           :   -114.345973320 Eh
             **** ENERGY FILE WAS UPDATED (H2CO.en.tmp) ****

----------------
TOTAL SCF ENERGY
----------------

Total Energy       :       -114.34597331993338 Eh           -3111.51212 eV

Components:
Nuclear Repulsion  :         31.39779731768289 Eh             854.37750 eV
Electronic Energy  :       -145.74380230386208 Eh           -3965.89048 eV
One Electron Energy:       -217.63340266167404 Eh           -5922.10596 eV
Two Electron Energy:         71.88960035781194 Eh            1956.21548 eV

Virial components:
Potential Energy   :       -227.85674176902518 Eh           -6200.29716 eV
Kinetic Energy     :        113.51076844909181 Eh            3088.78504 eV
Virial Ratio       :          2.00735793513032

DFT components:
N(Alpha)           :        7.999999418385 electrons
N(Beta)            :        7.999999418385 electrons
N(Total)           :       15.999998836770 electrons
E(X)               :      -10.536548303723 Eh       
E(C)               :       -0.520736993393 Eh       
E(XC)              :      -11.057285297116 Eh       

---------------
SCF CONVERGENCE
---------------

  Last Energy change         ...    3.8213e-10  Tolerance :   1.0000e-08
  Last MAX-Density change    ...    7.1398e-06  Tolerance :   1.0000e-07
  Last RMS-Density change    ...    8.1605e-07  Tolerance :   5.0000e-09
  Last DIIS Error            ...    2.1019e-03  Tolerance :   5.0000e-07
  Last Orbital Gradient      ...    2.9209e-06  Tolerance :   1.0000e-05
  Last Orbital Rotation      ...    3.1778e-06  Tolerance :   1.0000e-05


----------------
ORBITAL ENERGIES
----------------

  NO   OCC          E(Eh)            E(eV) 
   0   2.0000     -19.241833      -523.5969 
   1   2.0000     -10.335244      -281.2363 
   2   2.0000      -1.082380       -29.4530 
   3   2.0000      -0.646080       -17.5807 
   4   2.0000      -0.511644       -13.9225 
   5   2.0000      -0.465410       -12.6644 
   6   2.0000      -0.417489       -11.3604 
   7   2.0000      -0.279922        -7.6171 
   8   0.0000      -0.035626        -0.9694 
   9   0.0000       0.083341         2.2678 
  10   0.0000       0.148486         4.0405 
  11   0.0000       0.209019         5.6877 
  12   0.0000       0.455121        12.3845 
  13   0.0000       0.474558        12.9134 
  14   0.0000       0.565879        15.3984 
  15   0.0000       0.611715        16.6456 
  16   0.0000       0.635336        17.2884 
  17   0.0000       0.684427        18.6242 
  18   0.0000       0.903120        24.5751 
*Only the first 10 virtual orbitals were printed.

                    ********************************
                    * MULLIKEN POPULATION ANALYSIS *
                    ********************************

-----------------------
MULLIKEN ATOMIC CHARGES
-----------------------
   0 C :    0.150187
   1 O :   -0.224671
   2 H :    0.037242
   3 H :    0.037242
Sum of atomic charges:   -0.0000000

--------------------------------
MULLIKEN REDUCED ORBITAL CHARGES
--------------------------------
  0 C s       :     3.175774  s :     3.175774
      pz      :     0.735451  p :     2.595297
      px      :     0.876542
      py      :     0.983304
      dz2     :     0.003532  d :     0.078742
      dxz     :     0.015297
      dyz     :     0.000000
      dx2y2   :     0.016796
      dxy     :     0.043118

  1 O s       :     3.803757  s :     3.803757
      pz      :     1.238125  p :     4.401564
      px      :     1.333837
      py      :     1.829603
      dz2     :     0.001969  d :     0.019350
      dxz     :     0.006537
      dyz     :     0.000000
      dx2y2   :     0.006324
      dxy     :     0.004519

  2 H s       :     0.942035  s :     0.942035
      pz      :     0.002295  p :     0.020723
      px      :     0.005435
      py      :     0.012993

  3 H s       :     0.942035  s :     0.942035
      pz      :     0.002295  p :     0.020723
      px      :     0.005435
      py      :     0.012993



                     *******************************
                     * LOEWDIN POPULATION ANALYSIS *
                     *******************************

----------------------
LOEWDIN ATOMIC CHARGES
----------------------
   0 C :    0.131986
   1 O :   -0.120130
   2 H :   -0.005928
   3 H :   -0.005928

-------------------------------
LOEWDIN REDUCED ORBITAL CHARGES
-------------------------------
  0 C s       :     2.921968  s :     2.921968
      pz      :     0.727906  p :     2.761625
      px      :     0.985769
      py      :     1.047950
      dz2     :     0.009930  d :     0.184422
      dxz     :     0.025620
      dyz     :     0.000000
      dx2y2   :     0.042740
      dxy     :     0.106132

  1 O s       :     3.563939  s :     3.563939
      pz      :     1.223076  p :     4.523960
      px      :     1.482941
      py      :     1.817942
      dz2     :     0.004307  d :     0.032231
      dxz     :     0.007596
      dyz     :     0.000000
      dx2y2   :     0.013073
      dxy     :     0.007255

  2 H s       :     0.939735  s :     0.939735
      pz      :     0.007901  p :     0.066193
      px      :     0.018691
      py      :     0.039601

  3 H s       :     0.939735  s :     0.939735
      pz      :     0.007901  p :     0.066193
      px      :     0.018691
      py      :     0.039601



                      *****************************
                      * MAYER POPULATION ANALYSIS *
                      *****************************

  NA   - Mulliken gross atomic population
  ZA   - Total nuclear charge
  QA   - Mulliken gross atomic charge
  VA   - Mayer's total valence
  BVA  - Mayer's bonded valence
  FA   - Mayer's free valence

  ATOM       NA         ZA         QA         VA         BVA        FA
  0 C      5.8498     6.0000     0.1502     3.9466     3.9466     0.0000
  1 O      8.2247     8.0000    -0.2247     2.1934     2.1934    -0.0000
  2 H      0.9628     1.0000     0.0372     0.9540     0.9540     0.0000
  3 H      0.9628     1.0000     0.0372     0.9540     0.9540     0.0000

  Mayer bond orders larger than 0.100000
B(  0-C ,  1-O ) :   2.1133 B(  0-C ,  2-H ) :   0.9166 B(  0-C ,  3-H ) :   0.9166 


-------
TIMINGS
-------

Total SCF time: 0 days 0 hours 0 min 2 sec 

Total time                  ....       2.040 sec
Sum of individual times     ....       2.016 sec  ( 98.8%)

SCF preparation             ....       0.066 sec  (  3.3%)
Fock matrix formation       ....       1.910 sec  ( 93.6%)
  Startup                   ....       0.001 sec  (  0.0% of F)
  Split-RI-J                ....       0.092 sec  (  4.8% of F)
  Chain of spheres X        ....       1.245 sec  ( 65.2% of F)
  XC integration            ....       0.565 sec  ( 29.6% of F)
    Basis function eval.    ....       0.219 sec  ( 38.7% of XC)
    Density eval.           ....       0.088 sec  ( 15.6% of XC)
    XC-Functional eval.     ....       0.116 sec  ( 20.5% of XC)
    XC-Potential eval.      ....       0.095 sec  ( 16.9% of XC)
Diagonalization             ....       0.000 sec  (  0.0%)
Density matrix formation    ....       0.004 sec  (  0.2%)
Total Energy calculation    ....       0.000 sec  (  0.0%)
Population analysis         ....       0.002 sec  (  0.1%)
Orbital Transformation      ....       0.011 sec  (  0.6%)
Orbital Orthonormalization  ....       0.000 sec  (  0.0%)
DIIS solution               ....       0.018 sec  (  0.9%)
SOSCF solution              ....       0.002 sec  (  0.1%)
Finished LeanSCF after   2.0 sec

Maximum memory used throughout the entire LEANSCF-calculation: 5.8 MB

-------------------------   --------------------
FINAL SINGLE POINT ENERGY      -114.345973319933
-------------------------   --------------------

------------------------------------------------------------------------------
                         ORCA SCF GRADIENT CALCULATION
------------------------------------------------------------------------------

Nuc. rep. gradient        (SHARK) ... done (  0.0 sec)
HCore & Overlap gradient  (SHARK) ... done (  0.0 sec)
Split-RIJ-J gradient      (SHARK) ... done (  0.1 sec)
COSX-gradient                     ... done (  1.1 sec)
XC gradient                       ... done (  0.2 sec)

------------------
CARTESIAN GRADIENT
------------------

   1   C   :   -0.010829556    0.000000035    0.000000079
   2   O   :    0.001562301   -0.000000007   -0.000000006
   3   H   :    0.004633636   -0.005443157    0.000000086
   4   H   :    0.004633620    0.005443129   -0.000000159

Difference to translation invariance:
           :    0.0000000001   -0.0000000000    0.0000000000

Difference to rotation invariance:
           :    0.0000000344    0.0000000067   -0.0000000127

Norm of the Cartesian gradient     ...    0.0148968687
RMS gradient                       ...    0.0043003556
MAX gradient                       ...    0.0108295563

-------
TIMINGS
-------

Total SCF gradient time     ....        1.478 sec

Densities                   ....       0.000 sec  (  0.0%)
One electron gradient       ....       0.008 sec  (  0.5%)
RI-J Coulomb gradient       ....       0.133 sec  (  9.0%)
COSX gradient               ....       1.090 sec  ( 73.7%)
XC gradient                 ....       0.247 sec  ( 16.7%)

Maximum memory used throughout the entire SCFGRAD-calculation: 7.0 MB
------------------------------------------------------------------------------
                         ORCA GEOMETRY RELAXATION STEP
------------------------------------------------------------------------------

Reading the OPT-File                    .... done
Getting information on internals        .... done
Copying old internal coords+grads       .... done
Making the new internal coordinates     .... (2022 redundants) done
Validating the new internal coordinates .... (2022 redundants) done
Calculating the B-matrix                .... done
Calculating the G,G- and P matrices     .... done
Transforming gradient to internals      .... done
Projecting the internal gradient        .... done
Number of atoms                         ....   4
Number of internal coordinates          ....   7
Current Energy                          ....  -114.345973320 Eh
Current gradient norm                   ....     0.014896869 Eh/bohr
Maximum allowed component of the step   ....  0.300
Current trust radius                    ....  0.300
Evaluating the initial hessian          ....  (Almloef) done
Projecting the Hessian                  .... done
Forming the augmented Hessian           .... done
Diagonalizing the augmented Hessian     .... done
Last element of RFO vector              ....  0.999544867
Lowest eigenvalues of augmented Hessian:
 -0.000308404  0.115688921  0.318103196  0.337256137  0.337552661
Length of the computed step             ....  0.030180924
The final length of the internal step   ....  0.030180924
Converting the step to Cartesian space:
 Initial RMS(Int)=    0.0114073170
Transforming coordinates:
 Iter   0:  RMS(Cart)=    0.0074947452 RMS(Int)=    0.0114062989
done
Storing new coordinates                 .... done

                                .--------------------.
          ----------------------|Geometry convergence|-------------------------
          Item                value                   Tolerance       Converged
          ---------------------------------------------------------------------
          RMS gradient        0.0038845651            0.0001000000      NO
          MAX gradient        0.0070726935            0.0003000000      NO
          RMS step            0.0114073170            0.0020000000      NO
          MAX step            0.0209521220            0.0040000000      NO
          ........................................................
          Max(Bonds)      0.0111      Max(Angles)    0.26
          Max(Dihed)        0.00      Max(Improp)    0.00
          ---------------------------------------------------------------------

The optimization has not yet converged - more geometry cycles are needed


    ---------------------------------------------------------------------------
                         Redundant Internal Coordinates
                            (Angstroem and degrees)

        Definition                    Value    dE/dq     Step     New-Value
    ----------------------------------------------------------------------------
     1. B(O   1,C   0)                1.1987  0.001562 -0.0007    1.1980   
     2. B(H   2,C   0)                1.1078 -0.007073  0.0111    1.1189   
     3. B(H   3,C   0)                1.1078 -0.007073  0.0111    1.1189   
     4. A(O   1,C   0,H   3)          122.07 -0.000724    0.13    122.20   
     5. A(H   2,C   0,H   3)          115.87  0.001447   -0.26    115.61   
     6. A(O   1,C   0,H   2)          122.07 -0.000724    0.13    122.20   
     7. I(O   1,H   3,H   2,C   0)     -0.00 -0.000000    0.00      0.00   
    ----------------------------------------------------------------------------

Geometry step timings:
Preparation and reading OPT file:      0.000 s (12.339 %)
Internal coordinates            :      0.000 s ( 2.468 %)
B/P matrices and projection     :      0.000 s (13.197 %)
Hessian update/contruction      :      0.000 s (13.519 %)
Making the step                 :      0.000 s ( 6.223 %)
Converting the step to Cartesian:      0.000 s ( 3.433 %)
Storing new data                :      0.000 s ( 2.039 %)
Checking convergence            :      0.000 s ( 0.107 %)
Final printing                  :      0.000 s (46.245 %)
Total time                      :      0.001 s

Time for energy+gradient        :      4.410 s
Time for complete geometry iter :      4.446 s

         *************************************************************
         *                GEOMETRY OPTIMIZATION CYCLE   2            *
         *************************************************************
---------------------------------
CARTESIAN COORDINATES (ANGSTROEM)
---------------------------------
  C     -0.424299   -1.070959    0.000010
  O      0.773708   -1.070959   -0.000003
  H     -1.020471   -0.124081   -0.000003
  H     -1.020471   -2.017837    0.000036

----------------------------
CARTESIAN COORDINATES (A.U.)
----------------------------
  NO LB      ZA    FRAG     MASS         X           Y           Z
   0 C     6.0000    0    12.011   -0.801809   -2.023819    0.000019
   1 O     8.0000    0    15.999    1.462097   -2.023819   -0.000006
   2 H     1.0000    0     1.008   -1.928411   -0.234479   -0.000006
   3 H     1.0000    0     1.008   -1.928411   -3.813160    0.000068

--------------------------------
INTERNAL COORDINATES (ANGSTROEM)
--------------------------------
 C      0   0   0     0.000000000000     0.00000000     0.00000000
 O      1   0   0     1.198007478703     0.00000000     0.00000000
 H      1   2   0     1.118927810242   122.19526525     0.00000000
 H      1   2   3     1.118927759907   122.19526687   179.99999638

---------------------------
INTERNAL COORDINATES (A.U.)
---------------------------
 C      0   0   0     0.000000000000     0.00000000     0.00000000
 O      1   0   0     2.263906041139     0.00000000     0.00000000
 H      1   2   0     2.114467124985   122.19526525     0.00000000
 H      1   2   3     2.114467029867   122.19526687   179.99999638

------------------------------------------------------------------------------
                   ___                                                        
                  /   \      - P O W E R E D   B Y -                         
                 /     \                                                     
                 |  |  |   _    _      __       _____    __    __             
                 |  |  |  | |  | |    /  \     |  _  \  |  |  /  |          
                  \  \/   | |  | |   /    \    | | | |  |  | /  /          
                 / \  \   | |__| |  /  /\  \   | |_| |  |  |/  /          
                |  |  |   |  __  | /  /__\  \  |    /   |      \           
                |  |  |   | |  | | |   __   |  |    \   |  |\   \          
                \     /   | |  | | |  |  |  |  | |\  \  |  | \   \       
                 \___/    |_|  |_| |__|  |__|  |_| \__\ |__|  \__/        
                                                                              
                      - O R C A' S   B I G   F R I E N D -                    
                                      &                                       
                       - I N T E G R A L  F E E D E R -                       
                                                                              
 v1 FN, 2020, v2 2021, v3 2022-2024                                           
------------------------------------------------------------------------------


----------------------
SHARK INTEGRAL PACKAGE
----------------------

Number of atoms                             ...      4
Number of basis functions                   ...     38
Number of shells                            ...     18
Maximum angular momentum                    ...      2
Integral batch strategy                     ... SHARK/LIBINT Hybrid
RI-J (if used) integral strategy            ... SPLIT-RIJ (Revised 2003 algorithm where possible)
Printlevel                                  ...      1
Contraction scheme used                     ... SEGMENTED contraction
Prescreening option                         ... SCHWARTZ
   Thresh                                   ... 2.500e-11
   Tcut                                     ... 2.500e-12
   Tpresel                                  ... 2.500e-12 
Coulomb Range Separation                    ... NOT USED
Exchange Range Separation                   ... NOT USED
Multipole approximations                    ... NOT USED
Finite Nucleus Model                        ... NOT USED
CABS basis                                  ... NOT available
Auxiliary Coulomb fitting basis             ... AVAILABLE
   # of basis functions in Aux-J            ...    172
   # of shells in Aux-J                     ...     64
   Maximum angular momentum in Aux-J        ...      4
Auxiliary J/K fitting basis                 ... NOT available
Auxiliary Correlation fitting basis         ... AVAILABLE
   # of basis functions in Aux-C            ...    124
   # of shells in Aux-C                     ...     44
   Maximum angular momentum in Aux-C        ...      3
Auxiliary 'external' fitting basis          ... NOT available

Checking pre-screening integrals            ... done (  0.0 sec) Dimension = 18
Check shell pair data                       ... done (  0.0 sec)
Shell pair information
Shell pair cut-off parameter TPreSel        ...   2.5e-12
Total number of shell pairs                 ...       171
Shell pairs after pre-screening             ...       171
Total number of primitive shell pairs       ...       627
Primitive shell pairs kept                  ...       577
          la=0 lb=0:     55 shell pairs
          la=1 lb=0:     60 shell pairs
          la=1 lb=1:     21 shell pairs
          la=2 lb=0:     20 shell pairs
          la=2 lb=1:     12 shell pairs
          la=2 lb=2:      3 shell pairs

Calculating one electron integrals          ... done (  0.0 sec)
Calculating RI/J V-Matrix + Cholesky decomp.... done (  0.0 sec)
Calculating RI/C V-Matrix + Cholesky decomp.... done (  0.0 sec)
Calculating Nuclear repulsion               ... done (  0.0 sec) ENN=     31.330424916265 Eh

Diagonalization of the overlap matrix:
Smallest eigenvalue                        ... 1.829e-02
Time for diagonalization                   ...    0.000 sec
Threshold for overlap eigenvalues          ... 1.000e-07
Number of eigenvalues below threshold      ... 0
Time for construction of square roots      ...    0.000 sec
Total time needed                          ...    0.001 sec

-------------------
DFT GRID GENERATION
-------------------

General Integration Accuracy     IntAcc      ... 4.388
Radial Grid Type                 RadialGrid  ... OptM3 with GC (2021)
Angular Grid (max. ang.)         AngularGrid ... 4 (Lebedev-302)
Angular grid pruning method      GridPruning ... 4 (adaptive)
Weight generation scheme         WeightScheme... mBecke (2022)
Basis function cutoff            BFCut       ... 1.0000e-11
Integration weight cutoff        WCut        ... 1.0000e-14
Partially contracted basis set               ... off
Rotationally invariant grid construction     ... off
Angular grids for H and He will be reduced by one unit

Total number of grid points                  ...    18835
Total number of batches                      ...      297
Average number of points per batch           ...       63
Average number of grid points per atom       ...     4709

--------------------
COSX GRID GENERATION
--------------------

GRIDX 1
-------
General Integration Accuracy     IntAcc      ... 3.816
Radial Grid Type                 RadialGrid  ... OptM3 with GC (2021)
Angular Grid (max. ang.)         AngularGrid ... 1 (Lebedev-50)
Angular grid pruning method      GridPruning ... 4 (adaptive)
Weight generation scheme         WeightScheme... mBecke (2022)
Basis function cutoff            BFCut       ... 1.0000e-11
Integration weight cutoff        WCut        ... 1.0000e-14
Partially contracted basis set               ... on
Rotationally invariant grid construction     ... off
Angular grids for H and He will be reduced by one unit

Total number of grid points                  ...     2416
Total number of batches                      ...       22
Average number of points per batch           ...      109
Average number of grid points per atom       ...      604
UseSFitting                                  ... on

GRIDX 2
-------
General Integration Accuracy     IntAcc      ... 4.020
Radial Grid Type                 RadialGrid  ... OptM3 with GC (2021)
Angular Grid (max. ang.)         AngularGrid ... 2 (Lebedev-110)
Angular grid pruning method      GridPruning ... 4 (adaptive)
Weight generation scheme         WeightScheme... mBecke (2022)
Basis function cutoff            BFCut       ... 1.0000e-11
Integration weight cutoff        WCut        ... 1.0000e-14
Partially contracted basis set               ... on
Rotationally invariant grid construction     ... off
Angular grids for H and He will be reduced by one unit

Total number of grid points                  ...     5362
Total number of batches                      ...       43
Average number of points per batch           ...      124
Average number of grid points per atom       ...     1340
UseSFitting                                  ... on

GRIDX 3
-------
General Integration Accuracy     IntAcc      ... 4.338
Radial Grid Type                 RadialGrid  ... OptM3 with GC (2021)
Angular Grid (max. ang.)         AngularGrid ... 3 (Lebedev-194)
Angular grid pruning method      GridPruning ... 4 (adaptive)
Weight generation scheme         WeightScheme... mBecke (2022)
Basis function cutoff            BFCut       ... 1.0000e-11
Integration weight cutoff        WCut        ... 1.0000e-14
Partially contracted basis set               ... on
Rotationally invariant grid construction     ... off
Angular grids for H and He will be reduced by one unit

Total number of grid points                  ...    11891
Total number of batches                      ...       94
Average number of points per batch           ...      126
Average number of grid points per atom       ...     2973
UseSFitting                                  ... on
Initializing property integral containers    ... done (  0.0 sec)

SHARK setup successfully completed in   0.2 seconds

Maximum memory used throughout the entire STARTUP-calculation: 9.5 MB
------------------------------------------------------------------------------
                          ORCA RELATIVISTIC HAMILTONIAN
------------------------------------------------------------------------------

Relativistic Method            ... DKH
Order of DKH treatment         ...   2
Treatment of potential         ... V(e,N)
Eps parameter for DKH          ...   0.00000000010000
Nucleus model                  ... Point Nucleus
Speed of light used            ... 137.03598950000000


            ************************************************
            *        DOUGLAS-KROLL-HESS HAMILTONIAN        *
            *   Programmed by FN according to literature   *
            *        procedures. Special thanks to         *
            *       B.A. Hess, M. Reiher and A. Wolf       *
            *     University Erlangen-Nuernberg/Bonn       *
            ************************************************

Uncontracting the basis (first version)        ... done
Number of contracted basis functions           ...   38
Number of uncontracted basis functions         ...   62
Initializing the DKH file                      ... done
One center approximation for DKH is active
Finding unique atoms                      ... 3 atom types
 ATOMIC NUMBER   6
          ... doing integrals
          ... Computing the DKH transformation
          ... Transforming V and pVp to p**2 space
          ... First transformation of V and pVp
          ... Second transformation of Veff
          ... Adding kinetic energy
          ... Back transformation of Veff to r-space
          ... Recontracting the H-matrix
          ... Computing the DKH correction to the H-matrix
          ... adding submatrics to 1 actual atoms
 ATOMIC NUMBER   8
          ... doing integrals
          ... Computing the DKH transformation
          ... Transforming V and pVp to p**2 space
          ... First transformation of V and pVp
          ... Second transformation of Veff
          ... Adding kinetic energy
          ... Back transformation of Veff to r-space
          ... Recontracting the H-matrix
          ... Computing the DKH correction to the H-matrix
          ... adding submatrics to 1 actual atoms
 ATOMIC NUMBER   1
          ... doing integrals
          ... Computing the DKH transformation
          ... Transforming V and pVp to p**2 space
          ... First transformation of V and pVp
          ... Second transformation of Veff
          ... Adding kinetic energy
          ... Back transformation of Veff to r-space
          ... Recontracting the H-matrix
          ... Computing the DKH correction to the H-matrix
          ... adding submatrics to 2 actual atoms
Storing DKH matrices                           ... done
Getting S**(-1/2)                              ... done
Reading the original H-matrix                  ... done
Adding DKH correction to the H-matrix          ... done
Storing the new modified H-matrix              ... done

Maximum memory used throughout the entire REL-calculation: 10.3 MB
Occupation numbers will be reassigned to an Aufbau configuration
             **** ENERGY FILE WAS UPDATED (H2CO.en.tmp) ****
Finished Guess after   0.1 sec
Maximum memory used throughout the entire GUESS-calculation: 5.7 MB
----------------------------------------D-I-I-S--------------------------------------------
Iteration    Energy (Eh)           Delta-E    RMSDP     MaxDP     DIISErr   Damp  Time(sec)
-------------------------------------------------------------------------------------------
               ***  Starting incremental Fock matrix formation  ***
    1    -114.3461301864103632     0.00e+00  1.19e-04  1.00e-03  3.31e-03  0.700   0.2
                              *** Initializing SOSCF ***
---------------------------------------S-O-S-C-F--------------------------------------
Iteration    Energy (Eh)           Delta-E    RMSDP     MaxDP     MaxGrad    Time(sec)
--------------------------------------------------------------------------------------
    2    -114.3461419671787098    -1.18e-05  3.36e-04  2.86e-03  2.29e-03     0.1
               *** Restarting incremental Fock matrix formation ***
    3    -114.3461670150830685    -2.50e-05  1.96e-04  1.91e-03  6.68e-04     0.2
    4    -114.3461620616344590     4.95e-06  1.23e-04  1.44e-03  1.44e-03     0.2
    5    -114.3461693658595664    -7.30e-06  1.87e-05  1.58e-04  6.04e-05     0.2
    6    -114.3461693710496263    -5.19e-09  7.54e-06  9.08e-05  4.22e-05     0.2
                 **** Energy Check signals convergence ****

               *****************************************************
               *                     SUCCESS                       *
               *           SCF CONVERGED AFTER   6 CYCLES          *
               *****************************************************

Recomputing exchange energy using gridx3       ... done (    0.210 sec)
Old exchange energy                            :     -3.512423335 Eh
New exchange energy                            :     -3.512394730 Eh
Exchange energy change after final integration :      0.000028605 Eh
Total energy after final integration           :   -114.346140766 Eh
             **** ENERGY FILE WAS UPDATED (H2CO.en.tmp) ****

----------------
TOTAL SCF ENERGY
----------------

Total Energy       :       -114.34614076555479 Eh           -3111.51668 eV

Components:
Nuclear Repulsion  :         31.33042491626484 Eh             852.54420 eV
Electronic Energy  :       -145.67659428731446 Eh           -3964.06166 eV
One Electron Energy:       -217.50009945725964 Eh           -5918.47860 eV
Two Electron Energy:         71.82350516994518 Eh            1954.41694 eV

Virial components:
Potential Energy   :       -227.83156208296165 Eh           -6199.61199 eV
Kinetic Energy     :        113.48542131740686 Eh            3088.09531 eV
Virial Ratio       :          2.00758440545187

DFT components:
N(Alpha)           :        7.999999388672 electrons
N(Beta)            :        7.999999388672 electrons
N(Total)           :       15.999998777344 electrons
E(X)               :      -10.531189778497 Eh       
E(C)               :       -0.520406530808 Eh       
E(XC)              :      -11.051596309305 Eh       

---------------
SCF CONVERGENCE
---------------

  Last Energy change         ...    5.1901e-09  Tolerance :   1.0000e-08
  Last MAX-Density change    ...    9.0792e-05  Tolerance :   1.0000e-07
  Last RMS-Density change    ...    7.5366e-06  Tolerance :   5.0000e-09
  Last DIIS Error            ...    2.2869e-03  Tolerance :   5.0000e-07
  Last Orbital Gradient      ...    4.2171e-05  Tolerance :   1.0000e-05
  Last Orbital Rotation      ...    2.6439e-05  Tolerance :   1.0000e-05


Total SCF time: 0 days 0 hours 0 min 1 sec 
Finished LeanSCF after   1.2 sec

Maximum memory used throughout the entire LEANSCF-calculation: 5.9 MB

-------------------------   --------------------
FINAL SINGLE POINT ENERGY      -114.346140765555
-------------------------   --------------------

------------------------------------------------------------------------------
                         ORCA SCF GRADIENT CALCULATION
------------------------------------------------------------------------------

Nuc. rep. gradient        (SHARK) ... done (  0.0 sec)
HCore & Overlap gradient  (SHARK) ... done (  0.0 sec)
Split-RIJ-J gradient      (SHARK) ... done (  0.1 sec)
COSX-gradient                     ... done (  1.0 sec)
XC gradient                       ... done (  0.2 sec)

------------------
CARTESIAN GRADIENT
------------------

   1   C   :   -0.003961321   -0.000000006    0.000000062
   2   O   :    0.002024832    0.000000030   -0.000000017
   3   H   :    0.000968261    0.000105422   -0.000000030
   4   H   :    0.000968228   -0.000105447   -0.000000015

Difference to translation invariance:
           :    0.0000000001    0.0000000000    0.0000000000

Difference to rotation invariance:
           :   -0.0000000194   -0.0000000386    0.0000000367

Norm of the Cartesian gradient     ...    0.0046571704
RMS gradient                       ...    0.0013444093
MAX gradient                       ...    0.0039613209

-------
TIMINGS
-------

Total SCF gradient time     ....        1.350 sec

Densities                   ....       0.000 sec  (  0.0%)
One electron gradient       ....       0.008 sec  (  0.6%)
RI-J Coulomb gradient       ....       0.115 sec  (  8.5%)
COSX gradient               ....       1.004 sec  ( 74.4%)
XC gradient                 ....       0.223 sec  ( 16.5%)

Maximum memory used throughout the entire SCFGRAD-calculation: 7.0 MB
------------------------------------------------------------------------------
                         ORCA GEOMETRY RELAXATION STEP
------------------------------------------------------------------------------

Reading the OPT-File                    .... done
Getting information on internals        .... done
Copying old internal coords+grads       .... done
Making the new internal coordinates     .... (2022 redundants) done
Validating the new internal coordinates .... (2022 redundants) done
Calculating the B-matrix                .... done
Calculating the G,G- and P matrices     .... done
Transforming gradient to internals      .... done
Projecting the internal gradient        .... done
Number of atoms                         ....   4
Number of internal coordinates          ....   7
Current Energy                          ....  -114.346140766 Eh
Current gradient norm                   ....     0.004657170 Eh/bohr
Maximum allowed component of the step   ....  0.300
Current trust radius                    ....  0.300
Updating the Hessian (BFGS)             .... done
Forming the augmented Hessian           .... done
Diagonalizing the augmented Hessian     .... done
Last element of RFO vector              ....  0.999978473
Lowest eigenvalues of augmented Hessian:
 -0.000014179  0.115688921  0.266151520  0.337256137  0.365924016
Length of the computed step             ....  0.006561609
The final length of the internal step   ....  0.006561609
Converting the step to Cartesian space:
 Initial RMS(Int)=    0.0024800550
Transforming coordinates:
 Iter   0:  RMS(Cart)=    0.0012877666 RMS(Int)=    0.0024796116
done
Storing new coordinates                 .... done
The predicted energy change is          ....    -0.000007090
Previously predicted energy change      ....    -0.000154343
Actually observed energy change         ....    -0.000167446
Ratio of predicted to observed change   ....     1.084896146
New trust radius                        ....     0.450000000

                                .--------------------.
          ----------------------|Geometry convergence|-------------------------
          Item                value                   Tolerance       Converged
          ---------------------------------------------------------------------
          Energy change      -0.0001674456            0.0000050000      NO
          RMS gradient        0.0009819011            0.0001000000      NO
          MAX gradient        0.0020248322            0.0003000000      NO
          RMS step            0.0024800550            0.0020000000      NO
          MAX step            0.0044478166            0.0040000000      NO
          ........................................................
          Max(Bonds)      0.0011      Max(Angles)    0.25
          Max(Dihed)        0.00      Max(Improp)    0.00
          ---------------------------------------------------------------------

The optimization has not yet converged - more geometry cycles are needed


    ---------------------------------------------------------------------------
                         Redundant Internal Coordinates
                            (Angstroem and degrees)

        Definition                    Value    dE/dq     Step     New-Value
    ----------------------------------------------------------------------------
     1. B(O   1,C   0)                1.1980  0.002025 -0.0011    1.1969   
     2. B(H   2,C   0)                1.1189 -0.000427  0.0011    1.1201   
     3. B(H   3,C   0)                1.1189 -0.000427  0.0011    1.1201   
     4. A(O   1,C   0,H   3)          122.20 -0.000617    0.13    122.32   
     5. A(H   2,C   0,H   3)          115.61  0.001234   -0.25    115.35   
     6. A(O   1,C   0,H   2)          122.20 -0.000617    0.13    122.32   
     7. I(O   1,H   3,H   2,C   0)      0.00  0.000000   -0.00     -0.00   
    ----------------------------------------------------------------------------

Geometry step timings:
Preparation and reading OPT file:      0.000 s ( 1.380 %)
Internal coordinates            :      0.000 s ( 0.367 %)
B/P matrices and projection     :      0.000 s ( 1.799 %)
Hessian update/contruction      :      0.000 s ( 2.393 %)
Making the step                 :      0.000 s ( 0.891 %)
Converting the step to Cartesian:      0.000 s ( 0.349 %)
Storing new data                :      0.000 s ( 0.279 %)
Checking convergence            :      0.000 s ( 0.157 %)
Final printing                  :      0.005 s (92.332 %)
Total time                      :      0.006 s

[...]
  0-1.0A  -> 89-3.0A   20.604452  166186.1    60.2    0.00000   0.00000   0.00001   0.00000
  0-1.0A  -> 90-3.0A   20.604453  166186.1    60.2   -0.00000   0.00000   0.00000   0.00024
  0-1.0A  -> 91-3.0A   21.078539  170009.9    58.8    0.00000   0.00000   0.00004   0.00000
  0-1.0A  -> 92-3.0A   21.078539  170009.9    58.8    0.00000   0.00000   0.00000   0.00002
  0-1.0A  -> 93-3.0A   21.078540  170009.9    58.8    0.00000   0.00010   0.00000   0.00000
  0-1.0A  -> 94-3.0A   21.233206  171257.4    58.4    0.00000   0.00000   0.00000   0.00000
  0-1.0A  -> 95-3.0A   21.233223  171257.5    58.4    0.00000   0.00000   0.00042   0.00000
  0-1.0A  -> 96-3.0A   21.233225  171257.5    58.4    0.00000   0.00007   0.00000   0.00000
  0-1.0A  -> 97-1.0A   21.372961  172384.6    58.0   -0.00000   0.00000   0.00000   0.00000
  0-1.0A  -> 98-1.0A   22.129692  178488.0    56.0   -0.00000   0.00000   0.00000   0.00000
  0-1.0A  -> 99-1.0A   22.139760  178569.2    56.0   -0.00006   0.00000   0.03882   0.00000
  0-1.0A  -> 100-1.0A   22.384285  180541.5    55.4    0.00008   0.00000   0.00000   0.18503

----------------------------------------------------------------------------------------------
      SOC CORRECTED CD SPECTRUM VIA TRANSITION VELOCITY DIPOLE MOMENTS    
----------------------------------------------------------------------------------------------
      Transition         Energy     Energy  Wavelength    R       |MX|      |MY|      |MZ|  
                          (eV)      (cm-1)    (nm)    (1e40*cgs)  (au)      (au)      (au)  
----------------------------------------------------------------------------------------------
  0-1.0A  ->  1-3.0A    3.322183   26795.2   373.2    0.00000   0.00000   0.00000   0.00046
  0-1.0A  ->  2-3.0A    3.322185   26795.2   373.2   -0.00000   0.00000   0.00073   0.00000
  0-1.0A  ->  3-3.0A    3.322206   26795.4   373.2   -0.00000   0.00000   0.00000   0.00000
  0-1.0A  ->  4-1.0A    4.096875   33043.5   302.6    0.00001   0.58872   0.00000   0.00001
  0-1.0A  ->  5-3.0A    5.935954   47876.7   208.9    0.00000   0.00000   0.00000   0.00000
  0-1.0A  ->  6-3.0A    5.935958   47876.7   208.9   -0.00000   0.00000   0.00113   0.00000
  0-1.0A  ->  7-3.0A    5.935959   47876.7   208.9    0.00000   0.00127   0.00000   0.00000
  0-1.0A  ->  8-3.0A    7.650684   61706.9   162.1   -0.00000   0.00016   0.00000   0.00000
  0-1.0A  ->  9-3.0A    7.650685   61706.9   162.1    0.00000   0.00000   0.00000   0.00000
  0-1.0A  -> 10-3.0A    7.650685   61706.9   162.1   -0.00000   0.00000   0.00016   0.00000
  0-1.0A  -> 11-3.0A    8.012167   64622.5   154.7   -0.00000   0.00000   0.00000   0.00000
  0-1.0A  -> 12-3.0A    8.012178   64622.6   154.7    0.00000   0.00000   0.00000   0.00100
  0-1.0A  -> 13-3.0A    8.012180   64622.6   154.7   -0.00000   0.00120   0.00000   0.00000
  0-1.0A  -> 14-1.0A    8.489074   68469.0   146.1   -0.00001   0.00000   0.00001   0.36798
  0-1.0A  -> 15-3.0A    9.287836   74911.5   133.5    0.00000   0.00000   0.00086   0.00000
  0-1.0A  -> 16-3.0A    9.287837   74911.5   133.5    0.00000   0.00000   0.00000   0.00045
  0-1.0A  -> 17-3.0A    9.287838   74911.5   133.5   -0.00000   0.00008   0.00000   0.00000
  0-1.0A  -> 18-1.0A    9.384237   75689.0   132.1    0.00000   0.00000   0.73178   0.00002
  0-1.0A  -> 19-3.0A    9.536521   76917.2   130.0    0.00000   0.00000   0.00000   0.00000
  0-1.0A  -> 20-3.0A    9.536546   76917.4   130.0   -0.00000   0.00000   0.00000   0.00007
  0-1.0A  -> 21-3.0A    9.536570   76917.6   130.0    0.00000   0.00000   0.00985   0.00000
  0-1.0A  -> 22-1.0A    9.962870   80356.0   124.4    0.00002   0.00000   0.00000   0.00000
  0-1.0A  -> 23-1.0A   10.367960   83623.2   119.6   -0.00002   0.31199   0.00000   0.00000
  0-1.0A  -> 24-3.0A   10.728421   86530.6   115.6    0.00000   0.00011   0.00000   0.00000
  0-1.0A  -> 25-3.0A   10.728421   86530.6   115.6   -0.00000   0.00000   0.00000   0.00000
  0-1.0A  -> 26-3.0A   10.728422   86530.6   115.6    0.00000   0.00000   0.00096   0.00000
  0-1.0A  -> 27-1.0A   11.233660   90605.6   110.4   -0.00005   0.00001   0.00001   0.61315
  0-1.0A  -> 28-3.0A   11.662727   94066.2   106.3    0.00000   0.00000   0.00000   0.00000
  0-1.0A  -> 29-3.0A   11.662741   94066.4   106.3    0.00000   0.00008   0.00000   0.00000
  0-1.0A  -> 30-3.0A   11.662748   94066.4   106.3   -0.00000   0.00000   0.00000   0.00022
  0-1.0A  -> 31-1.0A   11.866549   95710.2   104.5    0.00001   0.00000   0.00000   0.00000
  0-1.0A  -> 32-1.0A   11.997100   96763.2   103.3    0.00001   0.00000   0.06866   0.00000
  0-1.0A  -> 33-3.0A   12.937261  104346.1    95.8   -0.00000   0.00005   0.00000   0.00000
  0-1.0A  -> 34-3.0A   12.937263  104346.1    95.8    0.00000   0.00000   0.00000   0.00046
  0-1.0A  -> 35-3.0A   12.937268  104346.1    95.8   -0.00000   0.00000   0.00000   0.00000
  0-1.0A  -> 36-3.0A   13.020312  105015.9    95.2    0.00000   0.00000   0.00049   0.00000
  0-1.0A  -> 37-3.0A   13.020317  105016.0    95.2   -0.00000   0.00004   0.00000   0.00000
  0-1.0A  -> 38-3.0A   13.020328  105016.0    95.2    0.00000   0.00000   0.00000   0.00086
  0-1.0A  -> 39-3.0A   13.374679  107874.1    92.7    0.00000   0.00000   0.00005   0.00000
  0-1.0A  -> 40-3.0A   13.374684  107874.1    92.7    0.00000   0.00000   0.00000   0.00052
  0-1.0A  -> 41-3.0A   13.374686  107874.1    92.7   -0.00000   0.00000   0.00000   0.00000
  0-1.0A  -> 42-3.0A   13.539911  109206.8    91.6   -0.00000   0.00000   0.00000   0.00000
  0-1.0A  -> 43-3.0A   13.540012  109207.6    91.6    0.00000   0.00007   0.00000   0.00000
  0-1.0A  -> 44-3.0A   13.540018  109207.6    91.6   -0.00000   0.00000   0.00021   0.00000
  0-1.0A  -> 45-1.0A   13.601956  109707.2    91.2   -0.00000   0.00203   0.00000   0.00000
  0-1.0A  -> 46-1.0A   13.633182  109959.0    90.9   -0.00000   0.00000   0.00000   0.00000
  0-1.0A  -> 47-3.0A   14.270173  115096.7    86.9    0.00000   0.00008   0.00000   0.00000
  0-1.0A  -> 48-3.0A   14.270175  115096.7    86.9   -0.00000   0.00000   0.00000   0.00178
  0-1.0A  -> 49-3.0A   14.270178  115096.8    86.9    0.00000   0.00000   0.00000   0.00000
  0-1.0A  -> 50-1.0A   14.470388  116711.6    85.7   -0.00002   0.00000   0.00001   0.31918
  0-1.0A  -> 51-3.0A   14.725528  118769.4    84.2    0.00000   0.00000   0.00033   0.00000
  0-1.0A  -> 52-3.0A   14.725531  118769.4    84.2    0.00000   0.00010   0.00000   0.00000
  0-1.0A  -> 53-3.0A   14.725552  118769.6    84.2   -0.00000   0.00000   0.00000   0.00000
  0-1.0A  -> 54-1.0A   14.873402  119962.1    83.4    0.00003   0.00000   0.06790   0.00000
  0-1.0A  -> 55-3.0A   15.012504  121084.0    82.6    0.00000   0.00000   0.00000   0.00398
  0-1.0A  -> 56-3.0A   15.012584  121084.7    82.6    0.00000   0.00000   0.00016   0.00000
  0-1.0A  -> 57-3.0A   15.012587  121084.7    82.6    0.00000   0.00017   0.00000   0.00000
  0-1.0A  -> 58-1.0A   15.127961  122015.2    82.0    0.00001   0.00000   0.00000   0.19130
  0-1.0A  -> 59-3.0A   15.850237  127840.8    78.2   -0.00000   0.00000   0.00807   0.00000
  0-1.0A  -> 60-3.0A   15.850290  127841.2    78.2   -0.00000   0.00001   0.00000   0.00000
  0-1.0A  -> 61-3.0A   15.850294  127841.3    78.2   -0.00000   0.00000   0.00000   0.00147
  0-1.0A  -> 62-1.0A   15.936798  128539.0    77.8    0.00000   0.00000   0.29047   0.00001
  0-1.0A  -> 63-1.0A   16.498467  133069.1    75.1    0.00000   0.00000   0.00000   0.00000
  0-1.0A  -> 64-3.0A   16.721053  134864.4    74.1   -0.00000   0.00000   0.00000   0.00000
  0-1.0A  -> 65-3.0A   16.721057  134864.4    74.1    0.00000   0.00000   0.00039   0.00000
  0-1.0A  -> 66-3.0A   16.721072  134864.6    74.1    0.00000   0.00000   0.00000   0.00000
  0-1.0A  -> 67-1.0A   16.867524  136045.8    73.5   -0.00000   0.00000   0.00000   0.00000
  0-1.0A  -> 68-3.0A   17.110114  138002.4    72.5   -0.00000   0.00001   0.00000   0.00000
  0-1.0A  -> 69-3.0A   17.110114  138002.4    72.5   -0.00000   0.00000   0.00000   0.00004
  0-1.0A  -> 70-3.0A   17.110115  138002.4    72.5   -0.00000   0.00000   0.00022   0.00000
  0-1.0A  -> 71-3.0A   17.576264  141762.1    70.5   -0.00000   0.00000   0.00068   0.00000
  0-1.0A  -> 72-3.0A   17.576267  141762.2    70.5   -0.00000   0.00000   0.00000   0.00000
  0-1.0A  -> 73-3.0A   17.576267  141762.2    70.5    0.00000   0.00001   0.00000   0.00000
  0-1.0A  -> 74-1.0A   17.657885  142420.5    70.2   -0.00001   0.00000   0.00001   0.40676
  0-1.0A  -> 75-3.0A   18.200908  146800.2    68.1    0.00000   0.00000   0.00010   0.00000
  0-1.0A  -> 76-3.0A   18.200908  146800.2    68.1   -0.00000   0.00000   0.00000   0.00009
  0-1.0A  -> 77-3.0A   18.200913  146800.3    68.1    0.00000   0.00000   0.00000   0.00000
  0-1.0A  -> 78-1.0A   18.281201  147447.8    67.8    0.00000   0.07382   0.00000   0.00000
  0-1.0A  -> 79-1.0A   18.709032  150898.5    66.3   -0.00001   0.00000   0.00001   0.35401
  0-1.0A  -> 80-1.0A   18.893492  152386.3    65.6   -0.00001   0.00000   0.00000   0.00000
  0-1.0A  -> 81-3.0A   19.001074  153254.0    65.3    0.00000   0.00002   0.00000   0.00000
  0-1.0A  -> 82-3.0A   19.001074  153254.0    65.3   -0.00000   0.00000   0.00000   0.00000
  0-1.0A  -> 83-3.0A   19.001074  153254.0    65.3   -0.00000   0.00000   0.00013   0.00000
  0-1.0A  -> 84-3.0A   19.502372  157297.3    63.6   -0.00000   0.00012   0.00000   0.00000
  0-1.0A  -> 85-3.0A   19.502372  157297.3    63.6   -0.00000   0.00000   0.00003   0.00000
  0-1.0A  -> 86-3.0A   19.502374  157297.3    63.6   -0.00000   0.00000   0.00000   0.00042
  0-1.0A  -> 87-1.0A   19.896826  160478.7    62.3    0.00000   0.00000   0.00000   0.02967
  0-1.0A  -> 88-3.0A   20.604452  166186.1    60.2   -0.00000   0.00006   0.00000   0.00000
  0-1.0A  -> 89-3.0A   20.604452  166186.1    60.2   -0.00000   0.00000   0.00001   0.00000
  0-1.0A  -> 90-3.0A   20.604453  166186.1    60.2   -0.00000   0.00000   0.00000   0.00024
  0-1.0A  -> 91-3.0A   21.078539  170009.9    58.8    0.00000   0.00000   0.00004   0.00000
  0-1.0A  -> 92-3.0A   21.078539  170009.9    58.8    0.00000   0.00000   0.00000   0.00002
  0-1.0A  -> 93-3.0A   21.078540  170009.9    58.8    0.00000   0.00010   0.00000   0.00000
  0-1.0A  -> 94-3.0A   21.233206  171257.4    58.4   -0.00000   0.00000   0.00000   0.00000
  0-1.0A  -> 95-3.0A   21.233223  171257.5    58.4    0.00000   0.00000   0.00042   0.00000
  0-1.0A  -> 96-3.0A   21.233225  171257.5    58.4    0.00000   0.00007   0.00000   0.00000
  0-1.0A  -> 97-1.0A   21.372961  172384.6    58.0   -0.00000   0.00000   0.00000   0.00000
  0-1.0A  -> 98-1.0A   22.129692  178488.0    56.0   -0.00000   0.00000   0.00000   0.00000
  0-1.0A  -> 99-1.0A   22.139760  178569.2    56.0   -0.00004   0.00000   0.03882   0.00000
  0-1.0A  -> 100-1.0A   22.384285  180541.5    55.4    0.00005   0.00000   0.00000   0.18503

Total run time:        2.118 sec

           *** ORCA-CIS/TD-DFT FINISHED WITHOUT ERROR ***

---------------------------
SOC CIS/TD-DFT TOTAL ENERGY
---------------------------

    E(SCF)        =   -114.346154775 Eh
    E(SOC CIS)    =      0.122087995 Eh (SOC Root  1)
    ----------------------------- ---------
    E(tot)        =   -114.224066780 Eh


Maximum memory used throughout the entire CIS-calculation: 19.9 MB
=> NOW LEAVING ORCA_CIS

-------------------------   --------------------
FINAL SINGLE POINT ENERGY      -114.224066779826
-------------------------   --------------------


------------------------------------------------------------------------------
                              ORCA PROPERTY CALCULATIONS
------------------------------------------------------------------------------

GBWName                                 ... H2CO_job2.gbw
Number of atoms                         ...      4
Number of basis functions               ...     38
Max core memory                         ...   1024 MB

Electric properties:
Dipole moment                           ... YES
Quadrupole moment                       ...  NO
Static polarizability (Dipole/Dipole)   ...  NO
Static polarizability (Dipole/Quad.)    ...  NO
Static polarizability (Quad./Quad.)     ...  NO
Static polarizability (Velocity)        ...  NO

Atomic electric properties:
Dipole moment                           ...  NO
Quadrupole moment                       ...  NO
Static polarizability                   ...  NO

Choice of electric origin               ... Center of mass
Position of electric origin             ...     0.332545    -2.023819     0.000007

General magnetic properties:
Magnetizability                         ...  NO

EPR properties:
g-Tensor (aka g-matrix)                 ...  NO
Zero-Field splitting spin-orbit         ...  NO
Zero-field splitting spin-spin          ...  NO
Hyperfine couplings                     ...  NO (   0 nuclei)
Quadrupole couplings                    ...  NO (   0 nuclei)
Contact density                         ...  NO (   0 nuclei)

NMR properties:
Chemical shifts                         ...  NO (   0 nuclei)
Spin-rotation constants                 ...  NO (   0 nuclei)
Spin-spin couplings                     ...  NO (   0 nuclei,    0 pairs)

Choice of magnetic origin               ... GIAO
Position of magnetic origin             ...     0.000000     0.000000     0.000000

Properties with geometric perturbations:
SCF Hessian                             ...  NO
IR spectrum                             ...  NO
VCD spectrum                            ...  NO
X-ray spectroscopy properties:
SCF XES/XAS/RIXS spectra                ...  NO


-------------
DIPOLE MOMENT
-------------

Method             : SCF
Type of density    : Electron Density
Multiplicity       :   1
Irrep              :   0
Energy             :  -114.3461547753039014 Eh
Relativity type    : 
Basis              : AO
                                X                 Y                 Z
Electronic contribution:      1.387607938       0.000000037      -0.000015199
Nuclear contribution   :     -2.240573286      -0.000000074       0.000024496
                        -----------------------------------------
Total Dipole Moment    :     -0.852965348      -0.000000037       0.000009297
                        -----------------------------------------
Magnitude (a.u.)       :      0.852965348
Magnitude (Debye)      :      2.168065616



--------------------
Rotational spectrum 
--------------------
 
Rotational constants in cm-1:             9.368431             1.304227             1.144847 
Rotational constants in MHz :        280858.506746         39099.730780         34321.641743 

Dipole components along the rotational axes: 
x,y,z [a.u.] :    -0.852965    -0.000000     0.000000 
x,y,z [Debye]:    -2.168066    -0.000000     0.000000 

 

Dipole moment calculation done in   0.0 sec 

Maximum memory used throughout the entire PROP-calculation: 4.2 MB

--------------------------------
SUGGESTED CITATIONS FOR THIS RUN
--------------------------------

Below you find a list of papers that are relevant to this ORCA run
We neither can nor want to force you to cite these papers, but we appreciate if you do
You receive ORCA, which is the product of decades of hard work by many enthusiastic individuals, for free
The only thing we kindly ask in return is that you cite our papers,
We deeply appreciate it, if you show your appreciation for ORCA by not just citing the generic ORCA reference.

Please note that relegating all ORCA citations to the supporting information does *not* help us.
SI sections are not indexed - citations you put there will not count into any citation statistics
But we need these citations in order to attract the funding resources that allow us to do what we are doing

Therefore, if you are a happy ORCA user, please consider citing a few of the papers listed below in the main body of your paper

In addition to the list printed below, the program has created the file H2CO_job2.bibtex that contains the list in bibtex format
You can import this file easily into all common literature databanks and citation aid programs


List of essential papers. We consider these as the minimum necessary citations

  1. Neese,F.
     Software update: the ORCA program system, version 5.0
     WIRES Comput. Molec. Sci., 2022 12(1)e1606
     doi.org/10.1002/wcms.1606

List of papers to cite with high priority. The work reported in these papers was absolutely
necessary for this run to complete.
Our perspective: the developers of density functionals and basis sets usually get cited in chemistry papers
Good! But without the algorithms to do something with them, the functionals or basis sets would not do anything.
Hence, in our opinion, the algorithm design and method developments papers are equally worthy of getting cited

  1. Neese,F.; Olbrich,G.
     Efficient use of the resolution of the identity approximation in time-dependent density functional calculations with hybrid density functionals
     Chem. Phys. Lett., 2002 362 170-178
     doi.org/10.1016/s0009-2614(02)01053-9
  2. Neese,F.
     An improvement of the resolution of the identity approximation for the formation of the Coulomb matrix
     J. Comp. Chem., 2003 24(14)1740-1747
     doi.org/10.1002/jcc.10318
  3. Neese,F.; Wennmohs,F.; Hansen,A.; Becker,U.
     Efficient, approximate and parallel Hartree-Fock and hybrid DFT calculations. A 'chain-of-spheres' algorithm for the Hartree-Fock exchange
     Chem. Phys., 2009 356(1-3)98-109
     doi.org/10.1016/j.chemphys.2008.10.036
  4. Helmich-Paris,B.; de Souza,B.; Neese,F.; Izsák,R.
     An improved chain of spheres for exchange algorithm
     J. Chem. Phys., 2021 155 104109
     doi.org/doi: 10.1063/5.0058766.
  5. Neese,F.
     The SHARK Integral Generation and Digestion System
     J. Comp. Chem., 2022  1-16
     doi.org/10.1002/jcc.26942

List of suggested additional citations. These are papers that are important in the 'surrounding' of 
of this run, or papers that preceded the highly important papers. If you like your results we are grateful for a citation.

  1. Izsak,R.; Neese,F.
     An overlap fitted chain of spheres exchange method
     J. Chem. Phys., 2011 135 144105
     doi.org/10.1063/1.3646921
  2. Izsak,R.; Hansen,A.; Neese,F.
     The resolution of identity and chain of spheres approximations for the LPNO-CCSD singles Fock term
     Molec. Phys., 2012 110 2413-2417
     doi.org/10.1080/00268976.2012.687466
  3. Neese,F.
     The ORCA program system
     WIRES Comput. Molec. Sci., 2012 2(1)73-78
     doi.org/10.1002/wcms.81
  4. Izsak,R.; Neese,F.; Klopper,W.
     Robust fitting techniques in the chain of spheres approximation to the Fock exchange: The role of the complementary space
     J. Chem. Phys., 2013 139 
     doi.org/10.1063/1.4819264
  5. Neese,F.
     Software update: the ORCA program system, version 4.0
     WIRES Comput. Molec. Sci., 2018 8(1)1-6
     doi.org/10.1002/wcms.1327
  6. Neese,F.; Wennmohs,F.; Becker,U.; Riplinger,C.
     The ORCA quantum chemistry program package
     J. Chem. Phys., 2020 152 Art. No. L224108
     doi.org/10.1063/5.0004608

List of optional additional citations

  1. Neese,F.
     Approximate second-order SCF convergence for spin unrestricted wavefunctions
     Chem. Phys. Lett., 2000 325(1-3)93-98
     doi.org/10.1016/s0009-2614(00)00662-x

Timings for individual modules:

Sum of individual times          ...        3.853 sec (=   0.064 min)
Startup calculation              ...        0.231 sec (=   0.004 min)   6.0 %
Relativistic integrals           ...        0.393 sec (=   0.007 min)  10.2 %
SCF iterations                   ...        0.843 sec (=   0.014 min)  21.9 %
Property integrals               ...        0.167 sec (=   0.003 min)   4.3 %
Property calculations            ...        0.074 sec (=   0.001 min)   1.9 %
CIS module                       ...        2.145 sec (=   0.036 min)  55.7 %



                             ****ORCA TERMINATED NORMALLY****
TOTAL RUN TIME: 0 days 0 hours 0 minutes 19 seconds 830 msec
