[Molden Format]
[Title]
 Molden file created by orca_2mkl for BaseName=H2CO

[Atoms] AU
C    1   6         -0.8000308210        -2.0238182948         0.0000206403 
O    2   8          1.4492856454        -2.0238203934        -0.0000062004 
H    3   1         -1.9228953132        -0.2554892258        -0.0000061544 
H    4   1         -1.9228936277        -3.7921489286         0.0000673035 
[GTO]
  1 0
s   9 1.0 
    33980.0000000000         0.1634507261
     5089.0000000000         0.3044212243
     1157.0000000000         0.5257838690
      326.6000000000         0.8468983407
      106.1000000000         1.2557643734
       38.1100000000         1.6186445796
       14.7500000000         1.6508946063
        6.0350000000         1.1035299844
        2.5300000000         0.3124856748
s   9 1.0 
    33980.0000000000        -0.0993718991
     5089.0000000000        -0.1901269771
     1157.0000000000        -0.3254334076
      326.6000000000        -0.5336611751
      106.1000000000        -0.7952977919
       38.1100000000        -1.0949380078
       14.7500000000        -1.2138132005
        6.0350000000        -1.1385061172
        2.5300000000        -0.4947488337
s   1 1.0 
        0.7355000000         0.5660399710
s   1 1.0 
        0.2905000000         0.2820133677
s   1 1.0 
        0.1111000000         0.1371499446
s   1 1.0 
        0.0414500000         0.0654716813
p   3 1.0 
       34.5100000000         3.7780189504
        7.9150000000         4.0287265029
        2.3680000000         3.5154650741
p   1 1.0 
        0.8132000000         1.1007452001
p   1 1.0 
        0.2890000000         0.3020385602
p   1 1.0 
        0.1007000000         0.0808587319
p   1 1.0 
        0.0321800000         0.0194277559
d   1 1.0 
        1.8480000000         8.3502316859
d   1 1.0 
        0.6490000000         1.3378219059
d   1 1.0 
        0.2280000000         0.2144648217
d   1 1.0 
        0.0766000000         0.0317958493
f   1 1.0 
        1.4190000000        12.5302711484
f   1 1.0 
        0.4850000000         1.1192290943
f   1 1.0 
        0.1870000000         0.1311123779
g   1 1.0 
        1.0110000000         6.7847699297
g   1 1.0 
        0.4240000000         0.6219071547

  2 0
s   9 1.0 
    61420.0000000000         0.2523109447
     9199.0000000000         0.4711097668
     2091.0000000000         0.8141083530
      590.9000000000         1.3105521083
      192.3000000000         1.9452147541
       69.3200000000         2.5189696443
       26.9700000000         2.5959061389
       11.1000000000         1.7413677596
        4.6820000000         0.4962545287
s   9 1.0 
    61420.0000000000        -0.1560108294
     9199.0000000000        -0.2986035587
     2091.0000000000        -0.5125219219
      590.9000000000        -0.8405962883
      192.3000000000        -1.2550688345
       69.3200000000        -1.7417109539
       26.9700000000        -1.9637641678
       11.1000000000        -1.8492059614
        4.6820000000        -0.7339424471
s   1 1.0 
        1.4280000000         0.9310140775
s   1 1.0 
        0.5547000000         0.4580930645
s   1 1.0 
        0.2067000000         0.2184818928
s   1 1.0 
        0.0695900000         0.0965651056
p   3 1.0 
       63.4200000000         7.9918745596
       14.6600000000         8.8587972165
        4.4590000000         7.7143562521
p   1 1.0 
        1.5310000000         2.4274990927
p   1 1.0 
        0.5302000000         0.6448960875
p   1 1.0 
        0.1750000000         0.1613383640
p   1 1.0 
        0.0534800000         0.0366588921
d   1 1.0 
        3.7750000000        29.1457178613
d   1 1.0 
        1.3000000000         4.5120193149
d   1 1.0 
        0.4440000000         0.6884783394
d   1 1.0 
        0.1540000000         0.1079273081
f   1 1.0 
        2.6660000000        51.7827851834
f   1 1.0 
        0.8590000000         4.0502767393
f   1 1.0 
        0.3240000000         0.4515713208
g   1 1.0 
        1.8460000000        35.5309331412
g   1 1.0 
        0.7140000000         2.6069909882

  3 0
s   3 1.0 
       82.6400000000         0.4483321190
       12.4100000000         0.8272091211
        2.8240000000         1.3425357337
s   1 1.0 
        0.7977000000         0.6015750091
s   1 1.0 
        0.2581000000         0.2580780661
s   1 1.0 
        0.0898900000         0.1170020921
s   1 1.0 
        0.0236300000         0.0429544224
p   1 1.0 
        2.2920000000         4.0198361784
p   1 1.0 
        0.8380000000         1.1428654696
p   1 1.0 
        0.2920000000         0.3059628180
p   1 1.0 
        0.0848000000         0.0652281263
d   1 1.0 
        2.0620000000        10.1152178423
d   1 1.0 
        0.6620000000         1.3850694971
d   1 1.0 
        0.1900000000         0.1558794573
f   1 1.0 
        1.3970000000        12.0973986675
f   1 1.0 
        0.3600000000         0.5723750651

  4 0
s   3 1.0 
       82.6400000000         0.4483321190
       12.4100000000         0.8272091211
        2.8240000000         1.3425357337
s   1 1.0 
        0.7977000000         0.6015750091
s   1 1.0 
        0.2581000000         0.2580780661
s   1 1.0 
        0.0898900000         0.1170020921
s   1 1.0 
        0.0236300000         0.0429544224
p   1 1.0 
        2.2920000000         4.0198361784
p   1 1.0 
        0.8380000000         1.1428654696
p   1 1.0 
        0.2920000000         0.3059628180
p   1 1.0 
        0.0848000000         0.0652281263
d   1 1.0 
        2.0620000000        10.1152178423
d   1 1.0 
        0.6620000000         1.3850694971
d   1 1.0 
        0.1900000000         0.1558794573
f   1 1.0 
        1.3970000000        12.0973986675
f   1 1.0 
        0.3600000000         0.5723750651

[5D]
[7F]
[9G]
[MO]
 Sym=     1a
 Ene= -1.92299817555304E+01
 Spin= Alpha
 Occup= 2.000000
  1       0.0013654512985935
  2       0.0017502058938342
  3      -0.0027862021030763
  4       0.0269667077242373
  5       0.0337024695251900
  6       0.0015894842259926
  7      -0.0004669400652457
  8      -0.0000000486734163
  9       0.0000000018106319
 10       0.0050378683540324
 11       0.0000001196828627
 12      -0.0000000707115129
 13       0.0177844134199235
 14       0.0000027375837484
 15       0.0000000614612496
 16       0.0110420093330963
 17       0.0000014726280047
 18      -0.0000001138749820
 19       0.0006240955395071
 20      -0.0000000844599321
 21      -0.0000000020903269
 22       0.0001153305165201
 23       0.0000000074399094
 24      -0.0000000116459879
 25       0.0001098770442075
 26       0.0000000236189824
 27      -0.0035327742761072
 28      -0.0000001823909162
 29       0.0000000943788827
 30       0.0050765618524796
 31      -0.0000006088570723
 32      -0.0074197876071775
 33      -0.0000003230056664
 34       0.0000000562447530
 35       0.0145624088166285
 36      -0.0000006632081807
 37      -0.0002103473936028
 38       0.0000000152833152
 39      -0.0000000446024884
 40      -0.0009147864290515
 41      -0.0000003611954957
 42       0.0000000032144218
 43      -0.0001239280346435
 44      -0.0000000376305794
 45      -0.0000000106365259
 46      -0.0000000092806456
 47      -0.0002003433333983
 48       0.0000000091440284
 49      -0.0000000554003217
 50      -0.0014363333777589
 51      -0.0000002414281304
 52      -0.0000001134069111
 53      -0.0000000599135520
 54      -0.0041513649747814
 55       0.0000000508994540
 56       0.0000000501180937
 57      -0.0019717117883089
 58      -0.0000001002236603
 59      -0.0000001525273442
 60       0.0000001504638009
 61      -0.0077258721251782
 62       0.0000000881303986
 63      -0.0000927752221359
 64      -0.0000000000128490
 65      -0.0000000159929991
 66       0.0002222216552777
 67       0.0000000380735807
 68      -0.0000000290320115
 69       0.0000000123195733
 70       0.0007670429001936
 71      -0.0000000205124568
 72       0.0005140875999435
 73       0.0000000569090648
 74      -0.0000000427898144
 75      -0.0010327230292195
 76      -0.0000000058657467
 77      -0.0000000520297700
 78       0.0000000530273310
 79       0.0005161666764991
 80      -0.0000002702430894
 81       0.9997089516950074
 82       0.0136361552556203
 83       0.0407538319500645
 84      -0.0406449315713127
 85      -0.0282049292729010
 86      -0.0066568633480775
 87      -0.0009411880011094
 88       0.0000000007301239
 89       0.0000000097515058
 90      -0.0026487505103614
 91       0.0000000036886695
 92       0.0000000385687155
 93       0.0185827423361603
 94      -0.0000002193741744
 95      -0.0000002874985446
 96       0.0038313692880354
 97      -0.0000000189027734
 98      -0.0000000916057008
 99       0.0004736852047488
100       0.0000001529131180
101      -0.0000000149861151
102      -0.0002648686658721
103      -0.0000000139930152
104       0.0000000044552136
105       0.0006814222209287
106      -0.0000000000180072
107       0.0010327336146522
108       0.0000000386596841
109       0.0000000100286562
110      -0.0012750131562557
111       0.0000000044990894
112       0.0024537011517415
113       0.0000001487158340
114      -0.0000000040793131
115      -0.0052502506083128
116       0.0000000530447402
117      -0.0015430030298614
118      -0.0000000162151455
119      -0.0000000644317925
120       0.0001846940570237
121       0.0000000062150199
122      -0.0000000040527421
123       0.0001908035879961
124       0.0000000019507865
125       0.0000000068429397
126       0.0000000024764653
127       0.0002103670937726
128       0.0000000047109582
129       0.0000000316305507
130      -0.0012546940310833
131      -0.0000000158824094
132      -0.0000000441543988
133      -0.0000000144958659
134      -0.0013503383667686
135      -0.0000000398605641
136       0.0000000050741141
137      -0.0003123373333863
138      -0.0000000019078745
139      -0.0000000362728469
140       0.0000000107698375
141      -0.0011560940882385
142      -0.0000000137909908
143      -0.0000684919043734
144      -0.0000000040096647
145      -0.0000000043095883
146       0.0000190160455924
147       0.0000000012692780
148       0.0000000008776506
149       0.0000000010960704
150      -0.0000174705692401
151       0.0000000006413484
152      -0.0002673528711876
153      -0.0000000119860276
154       0.0000000049355596
155       0.0004235206744124
156       0.0000000133875158
157      -0.0000000225521899
158      -0.0000000073724591
159       0.0005805682136085
160       0.0000000307538536
161       0.0000849890499874
162      -0.0021809087403315
163      -0.0060507639210600
164      -0.0023637334382051
165      -0.0000372726604960
166      -0.0001348147969500
167       0.0000215130611984
168       0.0000001352156033
169       0.0002168262684020
170       0.0011523874497212
171      -0.0000003191942415
172       0.0026588847874786
173       0.0013132539507018
174      -0.0000001229476127
175      -0.0020765932202289
176      -0.0001173082357075
177       0.0000000542507974
178       0.0000506702189961
179       0.0000000000556216
180       0.0000000037726042
181       0.0001502480319573
182      -0.0000220473634512
183      -0.0004184420261772
184      -0.0000000889728617
185       0.0000001237589968
186       0.0006821641051253
187      -0.0000263645318116
188      -0.0010318809267724
189      -0.0000000584791036
190      -0.0000000468514568
191       0.0009535412315977
192       0.0012663456729494
193       0.0000000181468731
194      -0.0001488789375167
195       0.0000882540529355
196       0.0000000117346506
197       0.0000000255595489
198      -0.0000793098476095
199       0.0002321079902603
200      -0.0000000196687726
201       0.0002111823198763
202       0.0001696540684695
203      -0.0000000121823568
204       0.0000000186816395
205      -0.0003004647037627
206      -0.0004333866913398
207       0.0000846717901522
208      -0.0021795979823788
209      -0.0060464040515512
210      -0.0023606267011932
211      -0.0000373666764010
212      -0.0001350068985261
213      -0.0000216263848078
214      -0.0000000259718591
215       0.0002176363513894
216      -0.0011517161517052
217       0.0000000597281758
218       0.0026599943329075
219      -0.0013121805320290
220      -0.0000000942001720
221      -0.0020764484911358
222       0.0001177766325624
223      -0.0000000149803205
224       0.0000506390499449
225       0.0000000014933632
226       0.0000000051639661
227       0.0001502266935560
228       0.0000220756646386
229      -0.0004185617078408
230      -0.0000000205874537
231       0.0000000089144298
232       0.0006821118159064
233       0.0000267644795836
234      -0.0010318566491468
235      -0.0000000317169365
236      -0.0000000348231651
237       0.0009534775726272
238      -0.0012663131622936
239       0.0000000021687182
240      -0.0001488978725485
241      -0.0000882911962301
242      -0.0000000086222200
243      -0.0000000004647536
244      -0.0000792394449851
245      -0.0002321174900247
246      -0.0000000036024276
247       0.0002112327864702
248      -0.0001696472177662
249       0.0000000125117467
250       0.0000000013347608
251      -0.0003004554816724
252       0.0004334269330735
 Sym=     1a
 Ene= -1.03390693827783E+01
 Spin= Alpha
 Occup= 2.000000
  1       1.0145899415914754
  2       0.0341713341237350
  3       0.0764038016446132
  4       0.0127080927451335
  5      -0.1055705638492295
  6      -0.0140521971124353
  7      -0.0002605906920208
  8       0.0000000022969723
  9       0.0000000079391680
 10       0.0070085075316819
 11      -0.0000000136751486
 12      -0.0000001157010399
 13       0.0151050963303315
 14      -0.0000001292334350
 15      -0.0000000409716600
 16       0.0063974817596914
 17      -0.0000001331291520
 18       0.0000000233754306
 19       0.0002328440241977
 20       0.0000000154161705
 21      -0.0000000008463286
 22      -0.0020468380787520
 23      -0.0000000492329384
 24      -0.0000000617543468
 25       0.0006905590887325
 26      -0.0000000039774195
 27      -0.0043051323694514
 28      -0.0000001236082176
 29      -0.0000000603861526
 30       0.0044134492204655
 31      -0.0000000118434762
 32       0.0217087980370879
 33       0.0000004842820386
 34       0.0000006774318286
 35      -0.0051557337299799
 36       0.0000001175981985
 37       0.0043843166771048
 38       0.0000001593245544
 39      -0.0000000015704482
 40      -0.0080522146669545
 41       0.0000000535109890
 42       0.0000000166610721
 43      -0.0003530936886939
 44       0.0000000020096736
 45      -0.0000000554979639
 46       0.0000000762274935
 47      -0.0034713731237469
 48       0.0000000012343694
 49       0.0000000332848450
 50      -0.0024070584481042
 51       0.0000000019418324
 52       0.0000000931861764
 53      -0.0000003056709829
 54       0.0090347501442198
 55       0.0000000068808711
 56      -0.0000000101994453
 57      -0.0001169809924967
 58       0.0000000009846600
 59       0.0000001632744528
 60      -0.0000003038427207
 61       0.0120467469051988
 62       0.0000000176737720
 63       0.0004210286847838
 64       0.0000000223758267
 65       0.0000000143131730
 66      -0.0003187191416108
 67       0.0000000020544366
 68       0.0000000038339695
 69       0.0000000162500993
 70       0.0000646850713842
 71       0.0000000037985125
 72      -0.0008260377495284
 73      -0.0000000134670001
 74      -0.0000000796116565
 75      -0.0006397097535934
 76      -0.0000000006120029
 77       0.0000000470603084
 78      -0.0000000754696668
 79      -0.0035709537663521
 80      -0.0000000098960244
 81       0.0010505920682128
 82       0.0017172593254778
 83       0.0040715095203971
 84       0.0016160548933472
 85       0.0160076103536928
 86       0.0107439604165214
 87       0.0001974231210781
 88      -0.0000000000732153
 89      -0.0000000030588167
 90      -0.0036207460593388
 91       0.0000000024402395
 92       0.0000000478838210
 93       0.0128302762336327
 94      -0.0000000117693639
 95      -0.0000001981611685
 96       0.0158258619469352
 97       0.0000000059303101
 98      -0.0000002081069215
 99       0.0013907961478288
100      -0.0000000227877972
101      -0.0000000105674661
102      -0.0003254142316307
103      -0.0000000152079407
104       0.0000000002268878
105       0.0005782021410335
106      -0.0000000025270033
107       0.0006836913794627
108       0.0000000345534537
109      -0.0000000015362204
110      -0.0012890544043525
111       0.0000000025443977
112       0.0082898965441162
113       0.0000003555037111
114       0.0000000328712399
115      -0.0128263763510048
116       0.0000000146884784
117       0.0051156672007055
118       0.0000001771582975
119       0.0000000679696226
120      -0.0053680381171328
121       0.0000000078928549
122      -0.0000000106502745
123       0.0003277478283490
124       0.0000000044699439
125       0.0000000104058142
126       0.0000000033370436
127       0.0002641602493398
128      -0.0000000036646679
129       0.0000001146603173
130      -0.0038211194169168
131      -0.0000000011267981
132      -0.0000001355967168
133      -0.0000000261838299
134      -0.0039175626512574
135       0.0000000103650211
136       0.0000001099208366
137      -0.0036619320014453
138       0.0000000042215013
139      -0.0000001278624021
140      -0.0000000308653110
141      -0.0034950315726630
142       0.0000000028858027
143      -0.0001732478676979
144      -0.0000000130722897
145      -0.0000000005325424
146       0.0002459432698422
147      -0.0000000007120658
148      -0.0000000141074302
149       0.0000000055557553
150       0.0005294976523476
151      -0.0000000024666156
152      -0.0013034235713992
153      -0.0000000955899327
154      -0.0000000040348175
155       0.0018615811350689
156      -0.0000000027010088
157      -0.0000000658164953
158      -0.0000000348267056
159       0.0012640155180556
160      -0.0000000035394018
161       0.0002226976991653
162       0.0082712450484620
163       0.0279073774236889
164       0.0210251470754190
165       0.0011151553269845
166       0.0006113068671920
167      -0.0007484769249742
168       0.0000000099771066
169      -0.0011349598339942
170       0.0001957871417982
171       0.0000000044685394
172      -0.0046815478612837
173       0.0026640380246278
174      -0.0000000127560119
175      -0.0039067626907753
176      -0.0049038998651724
177       0.0000001241118965
178      -0.0001069484578179
179      -0.0000000014085968
180      -0.0000000046276852
181       0.0000205492536592
182      -0.0000004824642199
183       0.0036422208495852
184      -0.0000000341496558
185       0.0000001378352897
186       0.0015562479340682
187       0.0035596261318772
188       0.0034131204730704
189      -0.0000000217732909
190       0.0000000997032519
191       0.0000701874687649
192       0.0032683898366795
193       0.0000000411156207
194       0.0005721087790022
195      -0.0010472568174877
196       0.0000000303820146
197       0.0000000302719957
198      -0.0010657120057463
199      -0.0000480399022423
200       0.0000000636078539
201       0.0005996900195549
202      -0.0014362348205797
203       0.0000000466550304
204       0.0000000222626745
205      -0.0007919751891237
206      -0.0000379321720030
207       0.0002226991979659
208       0.0082712408859264
209       0.0279070513573964
210       0.0210247384784576
211       0.0011151722549442
212       0.0006113086741303
213       0.0007484790973584
214      -0.0000000226073374
215      -0.0011349701030431
216      -0.0001957834974900
217       0.0000000075939519
218      -0.0046815711169494
219      -0.0026641392680024
220       0.0000000969409189
221      -0.0039067632375883
222       0.0049038207992726
223      -0.0000000655400190
224      -0.0001069486623936
225      -0.0000000027747475
226      -0.0000000050575797
227       0.0000205477634481
228       0.0000004836588066
229       0.0036422192438273
230       0.0000001190822099
231       0.0000001876680984
232       0.0015562531983597
233      -0.0035596304310926
234       0.0034131069028161
235       0.0000001239983619
236       0.0000001458927185
237       0.0000702067209844
238      -0.0032683944596496
239      -0.0000000652632514
240       0.0005721076329451
241       0.0010472579497473
242      -0.0000000352099273
243       0.0000000616181834
244      -0.0010657137191130
245       0.0000480368208746
246      -0.0000000811757258
247       0.0005996879462399
248       0.0014362295622587
249      -0.0000000409254515
250       0.0000000586531855
251      -0.0007919752067292
252       0.0000379327919634
 Sym=     1a
 Ene= -1.09363348900370E+00
 Spin= Alpha
 Occup= 2.000000
  1       0.0254637109434366
  2      -0.1394200229820139
  3      -0.1308517808608187
  4      -0.0321849438523739
  5       0.1139102115332760
  6       0.0197624862562902
  7      -0.0560341692071665
  8       0.0000000068313023
  9       0.0000006558623993
 10      -0.0861876502087079
 11      -0.0000012215720891
 12       0.0000008301217572
 13       0.0037695086745222
 14       0.0000204605296101
 15       0.0000038590724815
 16       0.0431917129674889
 17       0.0000195971345264
 18       0.0000005090494242
 19       0.0020340710677897
 20      -0.0000002932430225
 21       0.0000000756788394
 22       0.0038490672896205
 23       0.0000001492058696
 24       0.0000000106772748
 25      -0.0062903672984591
 26       0.0000002178160490
 27       0.0020322069731571
 28      -0.0000001956132342
 29      -0.0000002901511055
 30      -0.0083794970032809
 31      -0.0000020419891757
 32      -0.0071412690137338
 33      -0.0000004784082223
 34       0.0000004339649790
 35       0.0223043979769470
 36      -0.0000019938270503
 37       0.0002148340919595
 38       0.0000001502065905
 39       0.0000001259373229
 40      -0.0017146519836514
 41      -0.0000035388582265
 42      -0.0000000325250937
 43       0.0005538732811497
 44      -0.0000000394847191
 45      -0.0000000247557341
 46       0.0000000257709086
 47       0.0009445280301292
 48       0.0000000539752123
 49      -0.0000012295542397
 50       0.0010406644677899
 51      -0.0000021747941179
 52      -0.0000000676724000
 53       0.0000001465626058
 54       0.0044821794340911
 55       0.0000003813349316
 56      -0.0000001437136596
 57      -0.0016433568688343
 58      -0.0000010677737962
 59      -0.0000000235489716
 60       0.0000001660632375
 61      -0.0056461635172928
 62      -0.0000000242492646
 63      -0.0000867686850868
 64       0.0000000680591542
 65       0.0000000875293100
 66       0.0002742571713761
 67       0.0000001725394541
 68      -0.0000001693322960
 69      -0.0000000365215805
 70      -0.0001762983097244
 71      -0.0000003125715318
 72      -0.0004681388069763
 73       0.0000000851544312
 74      -0.0000000333959148
 75       0.0002074761763687
 76      -0.0000000500183519
 77      -0.0000009085704345
 78       0.0000002120747262
 79       0.0066293064256062
 80      -0.0000032525277076
 81       0.0221210056163247
 82      -0.2739577752488507
 83      -0.2221387245417457
 84      -0.4526963242266967
 85      -0.3340045401983247
 86      -0.0780969958697298
 87       0.0479711908152588
 88      -0.0000000657545342
 89      -0.0000005864174114
 90       0.0779861391721249
 91       0.0000000854483882
 92      -0.0000008420094504
 93       0.1285529994120702
 94      -0.0000034759259326
 95      -0.0000025017200488
 96       0.1019825142570281
 97      -0.0000042112955716
 98      -0.0000022348368504
 99       0.0130856461320372
100       0.0000010311463984
101      -0.0000003557844117
102       0.0013636223596816
103       0.0000000538686663
104      -0.0000000013073334
105      -0.0024745295019254
106      -0.0000000232043170
107       0.0030666146273086
108       0.0000002227778871
109      -0.0000000739620266
110      -0.0092379864820040
111       0.0000002150662422
112       0.0189460580812355
113       0.0000014206915350
114      -0.0000000317998530
115      -0.0307395091254382
116       0.0000018357211084
117       0.0075195821043012
118       0.0000006735598435
119      -0.0000001488135618
120      -0.0153721616958323
121       0.0000013693706695
122       0.0000000481177558
123      -0.0008666411919061
124      -0.0000000026066484
125      -0.0000000207143478
126       0.0000000101057315
127      -0.0008684934045027
128       0.0000000338690775
129       0.0000000692838349
130      -0.0028941928255575
131      -0.0000000435519572
132      -0.0000001851064229
133      -0.0000000052085314
134      -0.0037379207524185
135       0.0000000319655248
136       0.0000001373396527
137      -0.0047011297747163
138      -0.0000000100546863
139      -0.0000003648706166
140       0.0000000696141693
141      -0.0055341066226383
142       0.0000002207992448
143      -0.0000377477284917
144      -0.0000000292321045
145       0.0000000277040400
146       0.0006455709356681
147      -0.0000000069888789
148      -0.0000000203432289
149      -0.0000000134706091
150       0.0004635355223110
151      -0.0000000194351774
152      -0.0000620790791742
153       0.0000000779971265
154      -0.0000000035659419
155       0.0000832949109776
156       0.0000001022670399
157      -0.0000000533404355
158       0.0000000280998871
159       0.0004835846557939
160       0.0000001203050990
161      -0.0054686157649282
162      -0.0125938780964087
163      -0.0211804889365549
164      -0.0008845349872273
165      -0.0013135647946459
166      -0.0006121091300768
167      -0.0003718422600574
168       0.0000003667060997
169      -0.0017053563553746
170       0.0037998116904384
171      -0.0000010417093119
172       0.0023115640522878
173       0.0087376996728966
174      -0.0000013713411566
175      -0.0042888519726143
176       0.0006258309661131
177      -0.0000003370245808
178      -0.0000691183951916
179       0.0000000478305863
180      -0.0000000886111272
181      -0.0005278969061358
182       0.0000732575871555
183       0.0014331419818564
184      -0.0000004571937565
185       0.0000005889000247
186       0.0008615395490964
187       0.0029824169663629
188      -0.0004376470889520
189      -0.0000003719958072
190       0.0000002252572882
191       0.0023739118149448
192       0.0029546210924372
193       0.0000000311087076
194       0.0002475453533228
195      -0.0000481065729397
196       0.0000000239732476
197       0.0000000556355807
198      -0.0000716814002924
199      -0.0005466405013575
200      -0.0000000881656330
201       0.0014631031066931
202      -0.0000717312184581
203      -0.0000000640857907
204       0.0000002136872570
205      -0.0010110398811642
206      -0.0015757702210637
207      -0.0054694596028463
208      -0.0125852275363185
209      -0.0211555857961200
210      -0.0008487360365574
211      -0.0013138349318501
212      -0.0006132060031116
213       0.0003716844236747
214       0.0000004636950476
215      -0.0016996621124269
216      -0.0037973761973395
217      -0.0000012528820939
218       0.0023184286106882
219      -0.0087356688335635
220      -0.0000010019102126
221      -0.0042863166383839
222      -0.0006217998426761
223      -0.0000000331134778
224      -0.0000693247412823
225      -0.0000000236186699
226       0.0000000125267907
227      -0.0005278888011718
228      -0.0000731622545811
229       0.0014335280682154
230      -0.0000003877857410
231      -0.0000006721970763
232       0.0008625141281919
233      -0.0029803827079709
234      -0.0004366891233402
235       0.0000000038312542
236      -0.0000002394385066
237       0.0023746325251719
238      -0.0029547635906200
239       0.0000000916655397
240       0.0002476046662848
241       0.0000481133539080
242       0.0000000386380381
243      -0.0000002196259128
244      -0.0000716043423377
245       0.0005465161081385
246      -0.0000000807865599
247       0.0014635962714766
248       0.0000719028661725
249       0.0000001776695391
250       0.0000000516281223
251      -0.0010109102101646
252       0.0015758702400304
 Sym=     1a
 Ene= -6.49347610152675E-01
 Spin= Alpha
 Occup= 2.000000
  1       0.0249643369148278
  2      -0.2190976001793608
  3      -0.1861070543980793
  4      -0.2937114097606596
  5       0.0256171550964253
  6      -0.0252609048291741
  7       0.0579597036307546
  8      -0.0000000927122440
  9      -0.0000005546644519
 10       0.0999733818520464
 11       0.0000013201315800
 12      -0.0000008952947708
 13       0.0215587461439400
 14      -0.0000088372513771
 15      -0.0000026627423541
 16      -0.0533394868615451
 17      -0.0000100413901835
 18      -0.0000003688031329
 19      -0.0022051003271445
 20      -0.0000002770917861
 21      -0.0000000420371223
 22       0.0004994141254793
 23      -0.0000000003053791
 24       0.0000000859012010
 25       0.0029994316316034
 26      -0.0000001359025247
 27       0.0071077479749348
 28       0.0000002296269381
 29       0.0000003049549394
 30      -0.0042858987570848
 31       0.0000002569327652
 32      -0.0133168191565533
 33      -0.0000003726258602
 34      -0.0000012997329390
 35      -0.0315112420672797
 36      -0.0000005541272445
 37       0.0011220054066263
 38       0.0000001261552079
 39      -0.0000005699204242
 40      -0.0266719079905965
 41       0.0000013261428154
 42       0.0000000251515736
 43       0.0000040580893225
 44      -0.0000000552179142
 45       0.0000000321973524
 46      -0.0000000360296992
 47       0.0002542074622978
 48      -0.0000000340725436
 49       0.0000006763411756
 50       0.0025274443465230
 51       0.0000013408273709
 52       0.0000001114130327
 53      -0.0000004164384514
 54       0.0104255491819903
 55       0.0000002107681752
 56       0.0000000624138145
 57       0.0037843629180824
 58       0.0000007143576732
 59      -0.0000000226106982
 60       0.0000000700896205
 61      -0.0028709048592627
 62      -0.0000000095791531
 63       0.0003283095609995
 64      -0.0000000250743535
 65      -0.0000000486224651
 66       0.0002607250587004
 67      -0.0000000585589966
 68       0.0000001454123788
 69       0.0000000024251824
 70      -0.0001483348986052
 71       0.0000002168909853