
                                 *****************
                                 * O   R   C   A *
                                 *****************

                                            #,                                       
                                            ###                                      
                                            ####                                     
                                            #####                                    
                                            ######                                   
                                           ########,                                 
                                     ,,################,,,,,                         
                               ,,#################################,,                 
                          ,,##########################################,,             
                       ,#########################################, ''#####,          
                    ,#############################################,,   '####,        
                  ,##################################################,,,,####,       
                ,###########''''           ''''###############################       
              ,#####''   ,,,,##########,,,,          '''####'''          '####       
            ,##' ,,,,###########################,,,                        '##       
           ' ,,###''''                  '''############,,,                           
         ,,##''                                '''############,,,,        ,,,,,,###''
      ,#''                                            '''#######################'''  
     '                                                          ''''####''''         
             ,#######,   #######,   ,#######,      ##                                
            ,#'     '#,  ##    ##  ,#'     '#,    #''#        ,####,   ,####,        
            ##       ##  ##   ,#'  ##            #'  '#       #'       #'  '#        
            ##       ##  #######   ##           ,######,      #####,   #    #        
            '#,     ,#'  ##    ##  '#,     ,#' ,#      #,     #,   #   #,  ,#        
             '#######'   ##     ##  '#######'  #'      '#     '####' # '####'        



                #########################################################
                #                        -***-                          #
                #          Department of theory and spectroscopy        #
                #                                                       #
                #                      Frank Neese                      #
                #                                                       #
                #     Directorship, Architecture, Infrastructure        #
                #                    SHARK, DRIVERS                     #
                #        Core code/Algorithms in most modules           #
                #                                                       #
                #        Max Planck Institute fuer Kohlenforschung      #
                #                Kaiser Wilhelm Platz 1                 #
                #                 D-45470 Muelheim/Ruhr                 #
                #                      Germany                          #
                #                                                       #
                #                  All rights reserved                  #
                #                        -***-                          #
                #########################################################


                         Program Version 6.0.1  -  RELEASE   -


 With contributions from (in alphabetic order):
[Max-Planck-Institut fuer Kohlenforschung]                               
  Daniel Aravena         : Magnetic Suceptibility                        
  Michael Atanasov       : Ab Initio Ligand Field Theory (pilot matlab implementation)
  Alexander A. Auer      : GIAO ZORA, VPT2 properties, NMR spectrum      
  Ute Becker             : All parallelization in ORCA, NUMFREQ, NUMCALC 
  Giovanni Bistoni       : ED, misc. LED, open-shell LED, HFLD           
  Martin Brehm           : Molecular dynamics                            
  Dmytro Bykov           : pre 5.0 version of the SCF Hessian            
  Marcos Casanova-Páez   : Triplet and SCS-CIS(D). UHF-(DLPNO)-IP/EA/STEOM-CCSD. UHF-CVS-IP/STEOM-CCSD   
  Vijay G. Chilkuri      : MRCI spin determinant printing, contributions to CSF-ICE 
  Pauline Colinet        : FMM embedding                                 
  Dipayan Datta          : RHF DLPNO-CCSD density                        
  Achintya Kumar Dutta   : EOM-CC, STEOM-CC                              
  Nicolas Foglia         : Exact transition moments, OPA infrastructure, MCD improvements    
  Dmitry Ganyushin       : Spin-Orbit,Spin-Spin,Magnetic field MRCI      
  Miquel Garcia-Rates    : C-PCM and meta-GGA Hessian, CCSD/C-PCM, Gaussian charge scheme 
  Tiago L. C. Gouveia    : GS-ROHF, GS-ROCIS                             
  Yang Guo               : DLPNO-NEVPT2, F12-NEVPT2, CIM, IAO-localization        
  Andreas Hansen         : Spin unrestricted coupled pair/coupled cluster methods 
  Ingolf Harden          : AUTO-CI MPn and infrastructure                
  Benjamin Helmich-Paris : MC-RPA, TRAH-(SCF,CASSCF), AVAS, COSX integrals, SCF dyn. polar. 
  Lee Huntington         : MR-EOM, pCC                                   
  Robert Izsak           : Overlap fitted RIJCOSX, COSX-SCS-MP3, EOM     
  Riya Kayal             : Wick's Theorem for AUTO-CI, AUTO-CI UHF-CCSDT 
  Emily Kempfer          : AUTO-CI, RHF CISDT and CCSDT                  
  Christian Kollmar      : KDIIS, OOCD, Brueckner-CCSD(T), CCSD density, CASPT2, CASPT2-K, improved NEVPT2 
  Axel Koslowski         : Symmetry handling                             
  Simone Kossmann        : meta-GGA functionals, TD-DFT gradient, OOMP2, (MP2 Hessian; deprecated post 5.0) 
  Lucas Lang             : DCDCAS                                        
  Marvin Lechner         : AUTO-CI (C++ implementation), FIC-MRCC        
  Spencer Leger          : CASSCF response                               
  Dagmar Lenk            : GEPOL surface, SMD, ORCA-2-JSON               
  Dimitrios Liakos       : Extrapolation schemes; Compound Job, initial MDCI parallelization 
  Dimitrios Manganas     : Further ROCIS development; embedding schemes. LFT, Crystal Embedding 
  Dimitrios Pantazis     : SARC Basis sets                               
  Anastasios Papadopoulos: AUTO-CI, single reference methods and gradients 
  Taras Petrenko         : pre 6.0 DFT Hessian and TD-DFT gradient, (ASA, deprecated), ECA, 1-Electron XAS/XES, NRVS 
  Peter Pinski           : DLPNO-MP2, DLPNO-MP2 Gradient                 
  Christoph Reimann      : Effective Core Potentials                     
  Marius Retegan         : Local ZFS, SOC                                
  Christoph Riplinger    : Optimizer, TS searches, QM/MM, DLPNO-CCSD(T), (RO)-DLPNO pert. Triples 
  Michael Roemelt        : Original ROCIS implementation                 
  Masaaki Saitow         : Open-shell DLPNO-CCSD energy and density      
  Barbara Sandhoefer     : DKH picture change effects                    
  Kantharuban Sivalingam : CASSCF convergence/infrastructure, NEVPT2 and variants, FIC-MRCI 
  Bernardo de Souza      : ESD, SOC TD-DFT                               
  Georgi L. Stoychev     : AutoAux, RI-MP2 NMR, DLPNO-MP2 response, X2C  
  Van Anh Tran           : RI-MP2 g-tensors                              
  Willem Van den Heuvel  : Paramagnetic NMR                              
  Zikuan Wang            : NOTCH, Electric field optimization            
  Frank Wennmohs         : Technical directorship and infrastructure     
  Hang Xu                : AUTO-CI-Response properties                   
                                                                         
[FACCTs GmbH]                                                            
  Markus Bursch, Miquel Garcia-Rates, Christoph Riplinger, Bernardo de Souza, Georgi L. Stoychev 
                                                                 
  APM, Basis sets (HGBS, AHGBS, def-TZVP (Ac-Lr), def2-XVPD (La-Lu)), CI-OPT, improved COSX, DLPNO-Multilevel,           
  DOCKER, DRACO, updates on ESD, GOAT, IRC, LR-CPCM, MBIS, meta-GGA TD-DFT gradient, ML-optimized integration grids, 
  MM, NACMEs, nearIR, NEB, NEB-TS, NL-DFT gradient (VV10), 2- and 3-layer-ONIOM, interface openCOSMO-RS, QMMM,   
  Crystal-QMMM, SF, symmetry and pop. for TD-DFT, r2SCAN hybrids, SOLVATOR                                   
                                                                         
[Other institutions]                                                     
  V. Asgeirsson          : NEB                                           
  Christoph Bannwarth    : sTDA-DFT, sTD-DFT, PBEh-3c, B97-3c, D3        
  Sebastian Ehlert       : rSCAN, r2SCAN, r2SCAN-3c, D4, dhf basis sets  
  Marvin Friede          : D4 for Fr, Ra, Ac-Lr                          
  Lars Goerigk           : TD-DFT with DH, B97 family of functionals     
  Stefan Grimme          : VdW corrections, initial TS optimization, DFT functionals, gCP, sTDA/sTD-DF 
  Waldemar Hujo          : DFT-NL                                        
  H. Jonsson             : NEB                                           
  Holger Kruse           : gCP                                           
  Marcel Mueller         : wB97X-3c, vDZP basis set                      
  Hagen Neugebauer       : wr2SCAN                                       
  Tobias Risthaus        : range-separated hybrid DFT                    
  Lukas Wittmann         : regularized MP2, r2SCAN double-hybrids, wr2SCAN        
                                                                         
We gratefully acknowledge several colleagues who have allowed us to      
interface, adapt or use parts of their codes:                            
  Ed Valeev, F. Pavosevic, A. Kumar             : LibInt (2-el integral package), F12 methods 
  Garnet Chan, S. Sharma, J. Yang, R. Olivares  : DMRG                   
  Ulf Ekstrom                                   : XCFun DFT Library      
  Mihaly Kallay                                 : mrcc  (arbitrary order and MRCC methods)
  Frank Weinhold                                : gennbo (NPA and NBO analysis)           
  Simon Mueller                                 : openCOSMO-RS                            
  Christopher J. Cramer and Donald G. Truhlar   : smd solvation model                     
  S Lehtola, MJT Oliveira, MAL Marques          : LibXC Library                           
  Liviu Ungur et al                             : ANISO software                          


 Your calculation uses the libint2 library for the computation of 2-el integrals
 For citations please refer to: http://libint.valeyev.net

 Your ORCA version has been built with support for libXC version: 6.2.2
 For citations please refer to: https://libxc.gitlab.io

 This ORCA versions uses:
   CBLAS   interface :  Fast vector & matrix operations
   LAPACKE interface :  Fast linear algebra routines
   SCALAPACK package :  Parallel linear algebra routines
   Shared memory     :  Shared parallel matrices
   BLAS/LAPACK       :  OpenBLAS 0.3.27  USE64BITINT DYNAMIC_ARCH NO_AFFINITY Haswell SINGLE_THREADED
        Core in use  :  Haswell
   Copyright (c) 2011-2014, The OpenBLAS Project




***************************************
The coordinates will be read from file: H2CO.xyz
***************************************


XCFun DFT library Copyright 2009-2010 Ulf Ekstrom and contributors.
See http://admol.org/xcfun for more information.
This is free software; see the source code for copying conditions.
There is ABSOLUTELY NO WARRANTY; not even for MERCHANTABILITY or FITNESS FOR A PARTICULAR PURPOSE.
For details see the documentation.
Scientific users of this library should cite U. Ekstrom, L. Visscher, R. Bast, A. J. Thorvaldsen and K. Ruud;
J.Chem.Theor.Comp. 2010, DOI: 10.1021/ct100117s
XCFun Version 0.99 

Warning: RI is on but no J-basis has been assigned. Assigning Def2/J (nothing to worry about!)
================================================================================

----- Orbital basis set information -----
Your calculation utilizes the basis: aug-cc-pVQZ 
    H, B-Ne : Obtained from the ccRepo (grant-hill.group.shef.ac.uk/ccrepo) Feb. 2017
              R. A. Kendall, T. H. Dunning, Jr., R. J. Harrison, J. Chem. Phys. 96, 6796 (1992)
         He : Obtained from the ccRepo (grant-hill.group.shef.ac.uk/ccrepo) Feb. 2017
              D. E. Woon, T. H. Dunning, Jr., J. Chem. Phys. 100, 2975 (1994)
  Li-Be, Na : Obtained from the ccRepo (grant-hill.group.shef.ac.uk/ccrepo) Feb. 2017
              B. P. Prascher, D. E. Woon, K. A. Peterson, T. H. Dunning, Jr., A. K. Wilson, Theor. Chem. Acc. 128, 69 (2011)
         Mg : Obtained from the Peterson Research Group Website (tyr0.chem.wsu.edu/~kipeters) Feb. 2017
              B. P. Prascher, D. E. Woon, K. A. Peterson, T. H. Dunning, Jr., A. K. Wilson, Theor. Chem. Acc. 128, 69 (2011)
      Al-Ar : Obtained from the ccRepo (grant-hill.group.shef.ac.uk/ccrepo) Feb. 2017
              D. E. Woon, T. H. Dunning, Jr., J. Chem. Phys. 98, 1358 (1993)
      Sc-Zn : Obtained from the ccRepo (grant-hill.group.shef.ac.uk/ccrepo) Feb. 2017
              N. B. Balabanov, K. A. Peterson, J. Chem. Phys. 123, 064107 (2005)
              N. B. Balabanov, K. A. Peterson, J. Chem. Phys. 125, 074110 (2006)
      Ga-Kr : Obtained from the ccRepo (grant-hill.group.shef.ac.uk/ccrepo) Feb. 2017
              A. K. Wilson, D. E. Woon, K. A. Peterson, T. H. Dunning, Jr., J. Chem. Phys. 110, 7667 (1999)

----- AuxJ basis set information -----
Your calculation utilizes the auxiliary basis: def2/J
   F. Weigend, Phys. Chem. Chem. Phys. 8, 1057 (2006).

================================================================================
                                        WARNINGS
                       Please study these warnings very carefully!
================================================================================

WARNING: Old DensityContainer found on disk!
         Will remove this file - 
         If you want to keep old densities, please start your calculation with a different basename. 

WARNING: Functional chosen is sensitive to the integration grid.
         DEFGRID3 seems to be a minimum grid for robust results!

WARNING: Geometry Optimization
  ===> : Switching off AutoStart
         For restart on a previous wavefunction, please use MOREAD



***************************************
The coordinates will be read from file: H2CO.xyz
***************************************


XCFun DFT library Copyright 2009-2010 Ulf Ekstrom and contributors.
See http://admol.org/xcfun for more information.
This is free software; see the source code for copying conditions.
There is ABSOLUTELY NO WARRANTY; not even for MERCHANTABILITY or FITNESS FOR A PARTICULAR PURPOSE.
For details see the documentation.
Scientific users of this library should cite U. Ekstrom, L. Visscher, R. Bast, A. J. Thorvaldsen and K. Ruud;
J.Chem.Theor.Comp. 2010, DOI: 10.1021/ct100117s
XCFun Version 0.99 

Warning: RI is on but no J-basis has been assigned. Assigning Def2/J (nothing to worry about!)
================================================================================

----- Orbital basis set information -----
Your calculation utilizes the basis: aug-cc-pVQZ 
    H, B-Ne : Obtained from the ccRepo (grant-hill.group.shef.ac.uk/ccrepo) Feb. 2017
              R. A. Kendall, T. H. Dunning, Jr., R. J. Harrison, J. Chem. Phys. 96, 6796 (1992)
         He : Obtained from the ccRepo (grant-hill.group.shef.ac.uk/ccrepo) Feb. 2017
              D. E. Woon, T. H. Dunning, Jr., J. Chem. Phys. 100, 2975 (1994)
  Li-Be, Na : Obtained from the ccRepo (grant-hill.group.shef.ac.uk/ccrepo) Feb. 2017
              B. P. Prascher, D. E. Woon, K. A. Peterson, T. H. Dunning, Jr., A. K. Wilson, Theor. Chem. Acc. 128, 69 (2011)
         Mg : Obtained from the Peterson Research Group Website (tyr0.chem.wsu.edu/~kipeters) Feb. 2017
              B. P. Prascher, D. E. Woon, K. A. Peterson, T. H. Dunning, Jr., A. K. Wilson, Theor. Chem. Acc. 128, 69 (2011)
      Al-Ar : Obtained from the ccRepo (grant-hill.group.shef.ac.uk/ccrepo) Feb. 2017
              D. E. Woon, T. H. Dunning, Jr., J. Chem. Phys. 98, 1358 (1993)
      Sc-Zn : Obtained from the ccRepo (grant-hill.group.shef.ac.uk/ccrepo) Feb. 2017
              N. B. Balabanov, K. A. Peterson, J. Chem. Phys. 123, 064107 (2005)
              N. B. Balabanov, K. A. Peterson, J. Chem. Phys. 125, 074110 (2006)
      Ga-Kr : Obtained from the ccRepo (grant-hill.group.shef.ac.uk/ccrepo) Feb. 2017
              A. K. Wilson, D. E. Woon, K. A. Peterson, T. H. Dunning, Jr., J. Chem. Phys. 110, 7667 (1999)

----- AuxJ basis set information -----
Your calculation utilizes the auxiliary basis: def2/J
   F. Weigend, Phys. Chem. Chem. Phys. 8, 1057 (2006).

================================================================================
                                        WARNINGS
                       Please study these warnings very carefully!
================================================================================

WARNING: Old DensityContainer found on disk!
         Will remove this file - 
         If you want to keep old densities, please start your calculation with a different basename. 

WARNING: Functional chosen is sensitive to the integration grid.
         DEFGRID3 seems to be a minimum grid for robust results!
INFO   : Checking CIS options ...

================================================================================
                                       INPUT FILE
================================================================================
NAME = H2CO.inp
|  1> !M06 aug-cc-pvqz Opt
|  2> * xyzfile 0 1 H2CO.xyz
|  3> %scf
|  4> MaxIter 100
|  5> end
|  6> $new_job
|  7> !M06 aug-cc-pvqz
|  8> %TDDFT
|  9> NROOTS  50
| 10> TPrint 0.000001
| 11> TDA TRUE
| 12> END
| 13> * xyzfile 0 1 H2CO.xyz
| 14> %scf
| 15> MaxIter 100
| 16> end
| 17> 
| 18>                          ****END OF INPUT****
================================================================================


                 $$$$$$$$$$$$$$$$$$$$$$$$$$$$$$$$$$$$$$$$$$$$$$ 
                 $ THERE ARE  2 JOBS TO BE PROCESSED THIS RUN $
                 $$$$$$$$$$$$$$$$$$$$$$$$$$$$$$$$$$$$$$$$$$$$$$ 




                 $$$$$$$$$$$$$$$$  JOB NUMBER  1 $$$$$$$$$$$$$$


                       *****************************
                       * Geometry Optimization Run *
                       *****************************

Geometry optimization settings:
Update method            Update   .... BFGS
Choice of coordinates    CoordSys .... (2022) Redundant Internals
Initial Hessian          InHess   .... Almloef's Model
Max. no of cycles        MaxIter  .... 50

Convergence Tolerances:
Energy Change            TolE     ....  5.0000e-06 Eh
Max. Gradient            TolMAXG  ....  3.0000e-04 Eh/bohr
RMS Gradient             TolRMSG  ....  1.0000e-04 Eh/bohr
Max. Displacement        TolMAXD  ....  4.0000e-03 bohr
RMS Displacement         TolRMSD  ....  2.0000e-03 bohr
Strict Convergence                .... False

------------------------------------------------------------------------------
                        ORCA OPTIMIZATION COORDINATE SETUP
------------------------------------------------------------------------------

The optimization will be done in redundant internal coordinates (2022)
Making redundant internal coordinates   ...  (2022 redundants) done
Evaluating the initial hessian          ...  (Almloef) done
Evaluating the coordinates              ...  done
Calculating the B-matrix                .... done
Calculating the G-matrix                .... done
Diagonalizing the G-matrix              .... done
The first mode is                       ....    1
The number of degrees of freedom        ....    6

    -----------------------------------------------------------------
                    Redundant Internal Coordinates


    -----------------------------------------------------------------
         Definition                    Initial Value    Approx d2E/dq
    -----------------------------------------------------------------
      1. B(O   1,C   0)                  1.1987         1.129848   
      2. B(H   2,C   0)                  1.1078         0.337256   
      3. B(H   3,C   0)                  1.1078         0.337256   
      4. A(O   1,C   0,H   3)          122.0650         0.384402   
      5. A(H   2,C   0,H   3)          115.8699         0.284939   
      6. A(O   1,C   0,H   2)          122.0650         0.384402   
      7. I(O   1,H   3,H   2,C   0)     -0.0000         0.115689   
    -----------------------------------------------------------------

Number of atoms                         .... 4
Number of degrees of freedom            .... 7


         *************************************************************
         *                GEOMETRY OPTIMIZATION CYCLE   1            *
         *************************************************************
---------------------------------
CARTESIAN COORDINATES (ANGSTROEM)
---------------------------------
  C     -0.428502   -1.070959    0.000010
  O      0.770237   -1.070959   -0.000003
  H     -1.016634   -0.132124   -0.000003
  H     -1.016634   -2.009794    0.000036

----------------------------
CARTESIAN COORDINATES (A.U.)
----------------------------
  NO LB      ZA    FRAG     MASS         X           Y           Z
   0 C     6.0000    0    12.011   -0.809751   -2.023819    0.000019
   1 O     8.0000    0    15.999    1.455537   -2.023819   -0.000006
   2 H     1.0000    0     1.008   -1.921160   -0.249678   -0.000006
   3 H     1.0000    0     1.008   -1.921160   -3.797960    0.000068

--------------------------------
INTERNAL COORDINATES (ANGSTROEM)
--------------------------------
 C      0   0   0     0.000000000000     0.00000000     0.00000000
 O      1   0   0     1.198739000070     0.00000000     0.00000000
 H      1   2   0     1.107840424799   122.06503441     0.00000000
 H      1   2   3     1.107840425027   122.06503443   180.00001486

---------------------------
INTERNAL COORDINATES (A.U.)
---------------------------
 C      0   0   0     0.000000000000     0.00000000     0.00000000
 O      1   0   0     2.265288416184     0.00000000     0.00000000
 H      1   2   0     2.093515002956   122.06503441     0.00000000
 H      1   2   3     2.093515003389   122.06503443   180.00001486

---------------------
BASIS SET INFORMATION
---------------------
There are 3 groups of distinct atoms

 Group   1 Type C   : 22s7p4d3f2g contracted to 6s5p4d3f2g pattern {991111/31111/1111/111/11}
 Group   2 Type O   : 22s7p4d3f2g contracted to 6s5p4d3f2g pattern {991111/31111/1111/111/11}
 Group   3 Type H   : 7s4p3d2f contracted to 5s4p3d2f pattern {31111/1111/111/11}

Atom   0C    basis set group =>   1
Atom   1O    basis set group =>   2
Atom   2H    basis set group =>   3
Atom   3H    basis set group =>   3
---------------------------------
AUXILIARY/J BASIS SET INFORMATION
---------------------------------
There are 3 groups of distinct atoms

 Group   1 Type C   : 12s5p4d2f1g contracted to 6s4p3d1f1g pattern {711111/2111/211/2/1}
 Group   2 Type O   : 12s5p4d2f1g contracted to 6s4p3d1f1g pattern {711111/2111/211/2/1}
 Group   3 Type H   : 5s2p1d contracted to 3s1p1d pattern {311/2/1}

Atom   0C    basis set group =>   1
Atom   1O    basis set group =>   2
Atom   2H    basis set group =>   3
Atom   3H    basis set group =>   3
------------------------------------------------------------------------------
                             ORCA STARTUP CALCULATIONS
                           -- RI-GTO INTEGRALS CHOSEN --
------------------------------------------------------------------------------
------------------------------------------------------------------------------
                   ___                                                        
                  /   \      - P O W E R E D   B Y -                         
                 /     \                                                     
                 |  |  |   _    _      __       _____    __    __             
                 |  |  |  | |  | |    /  \     |  _  \  |  |  /  |          
                  \  \/   | |  | |   /    \    | | | |  |  | /  /          
                 / \  \   | |__| |  /  /\  \   | |_| |  |  |/  /          
                |  |  |   |  __  | /  /__\  \  |    /   |      \           
                |  |  |   | |  | | |   __   |  |    \   |  |\   \          
                \     /   | |  | | |  |  |  |  | |\  \  |  | \   \       
                 \___/    |_|  |_| |__|  |__|  |_| \__\ |__|  \__/        
                                                                              
                      - O R C A' S   B I G   F R I E N D -                    
                                      &                                       
                       - I N T E G R A L  F E E D E R -                       
                                                                              
 v1 FN, 2020, v2 2021, v3 2022-2024                                           
------------------------------------------------------------------------------


----------------------
SHARK INTEGRAL PACKAGE
----------------------

Number of atoms                             ...      4
Number of basis functions                   ...    266
Number of shells                            ...     82
Maximum angular momentum                    ...      4
Integral batch strategy                     ... SHARK/LIBINT Hybrid
RI-J (if used) integral strategy            ... SPLIT-RIJ (Revised 2003 algorithm where possible)
Printlevel                                  ...      1
Contraction scheme used                     ... PARTIAL GENERAL contraction
Prescreening option                         ... SCHWARTZ
   Thresh                                   ... 2.500e-11
   Tcut                                     ... 2.500e-12
   Tpresel                                  ... 2.500e-12 
Coulomb Range Separation                    ... NOT USED
Exchange Range Separation                   ... NOT USED
Multipole approximations                    ... NOT USED
Finite Nucleus Model                        ... NOT USED
CABS basis                                  ... NOT available
Auxiliary Coulomb fitting basis             ... AVAILABLE
   # of basis functions in Aux-J            ...    120
   # of shells in Aux-J                     ...     40
   Maximum angular momentum in Aux-J        ...      4
Auxiliary J/K fitting basis                 ... NOT available
Auxiliary Correlation fitting basis         ... NOT available
Auxiliary 'external' fitting basis          ... NOT available

Checking pre-screening integrals            ... done (  0.0 sec) Dimension = 82
Save PGC pre-screening integrals            ... done (  0.0 sec) Dimension = 82
Calculate PGC overlap integrals             ... done (  0.0 sec) Dimension = 68
Calculating pre-screening integrals (ORCA)  ... done (  0.1 sec) Dimension = 68
Check shell pair data                       ... done (  0.0 sec)
Shell pair information
Shell pair cut-off parameter TPreSel        ...   2.5e-12
Total number of shell pairs                 ...      3403
Shell pairs after pre-screening             ...      3298
Total number of primitive shell pairs       ...      4107
Primitive shell pairs kept                  ...      3875
          la=0 lb=0:    587 shell pairs
          la=1 lb=0:    634 shell pairs
          la=1 lb=1:    171 shell pairs
          la=2 lb=0:    494 shell pairs
          la=2 lb=1:    252 shell pairs
          la=2 lb=2:    105 shell pairs
          la=3 lb=0:    360 shell pairs
          la=3 lb=1:    180 shell pairs
          la=3 lb=2:    140 shell pairs
          la=3 lb=3:     55 shell pairs
          la=4 lb=0:    142 shell pairs
          la=4 lb=1:     72 shell pairs
          la=4 lb=2:     56 shell pairs
          la=4 lb=3:     40 shell pairs
          la=4 lb=4:     10 shell pairs

Calculating one electron integrals          ... done (  0.0 sec)
Calculating RI/J V-Matrix + Cholesky decomp.... done (  0.0 sec)
Calculating Nuclear repulsion               ... done (  0.0 sec) ENN=     31.397797317683 Eh

Diagonalization of the overlap matrix:
Smallest eigenvalue                        ... 2.249e-05
Time for diagonalization                   ...    0.005 sec
Threshold for overlap eigenvalues          ... 1.000e-07
Number of eigenvalues below threshold      ... 0
Time for construction of square roots      ...    0.002 sec
Total time needed                          ...    0.007 sec

-------------------
DFT GRID GENERATION
-------------------

General Integration Accuracy     IntAcc      ... 4.388
Radial Grid Type                 RadialGrid  ... OptM3 with GC (2021)
Angular Grid (max. ang.)         AngularGrid ... 4 (Lebedev-302)
Angular grid pruning method      GridPruning ... 4 (adaptive)
Weight generation scheme         WeightScheme... mBecke (2022)
Basis function cutoff            BFCut       ... 1.0000e-11
Integration weight cutoff        WCut        ... 1.0000e-14
Partially contracted basis set               ... off
Rotationally invariant grid construction     ... off
Angular grids for H and He will be reduced by one unit
Diffuse basis detected: some atoms will have their outermost
                        angular grid increased by 1.

Total number of grid points                  ...    19923
Total number of batches                      ...      313
Average number of points per batch           ...       63
Average number of grid points per atom       ...     4981

---------------------
SHARK GRID GENERATION
---------------------

General Integration Accuracy     IntAcc      ... 4.388
Radial Grid Type                 RadialGrid  ... OptM3 with GC (2021)
Angular Grid (max. ang.)         AngularGrid ... 4 (Lebedev-302)
Angular grid pruning method      GridPruning ... 4 (adaptive)
Weight generation scheme         WeightScheme... mBecke (2022)
Basis function cutoff            BFCut       ... 1.0000e-11
Integration weight cutoff        WCut        ... 1.0000e-14
Partially contracted basis set               ... off
Rotationally invariant grid construction     ... off
Angular grids for H and He will be reduced by one unit
Diffuse basis detected: some atoms will have their outermost
                        angular grid increased by 1.
Steep s-basis detected: some atoms will have their radial
                        grid points doubled.

Total number of grid points                  ...    32981
Total number of batches                      ...      517
Average number of points per batch           ...       63
Average number of grid points per atom       ...     8245

--------------------
COSX GRID GENERATION
--------------------

GRIDX 1
-------
General Integration Accuracy     IntAcc      ... 3.816
Radial Grid Type                 RadialGrid  ... OptM3 with GC (2021)
Angular Grid (max. ang.)         AngularGrid ... 1 (Lebedev-50)
Angular grid pruning method      GridPruning ... 4 (adaptive)
Weight generation scheme         WeightScheme... mBecke (2022)
Basis function cutoff            BFCut       ... 1.0000e-11
Integration weight cutoff        WCut        ... 1.0000e-14
Partially contracted basis set               ... on
Rotationally invariant grid construction     ... off
Angular grids for H and He will be reduced by one unit
Diffuse basis detected: some atoms will have their outermost
                        angular grid increased by 1.

Total number of grid points                  ...     2512
Total number of batches                      ...       22
Average number of points per batch           ...      114
Average number of grid points per atom       ...      628
UseSFitting                                  ... on

GRIDX 2
-------
General Integration Accuracy     IntAcc      ... 4.020
Radial Grid Type                 RadialGrid  ... OptM3 with GC (2021)
Angular Grid (max. ang.)         AngularGrid ... 2 (Lebedev-110)
Angular grid pruning method      GridPruning ... 4 (adaptive)
Weight generation scheme         WeightScheme... mBecke (2022)
Basis function cutoff            BFCut       ... 1.0000e-11
Integration weight cutoff        WCut        ... 1.0000e-14
Partially contracted basis set               ... on
Rotationally invariant grid construction     ... off
Angular grids for H and He will be reduced by one unit
Diffuse basis detected: some atoms will have their outermost
                        angular grid increased by 1.

Total number of grid points                  ...     6378
Total number of batches                      ...       52
Average number of points per batch           ...      122
Average number of grid points per atom       ...     1594
UseSFitting                                  ... on

GRIDX 3
-------
General Integration Accuracy     IntAcc      ... 4.338
Radial Grid Type                 RadialGrid  ... OptM3 with GC (2021)
Angular Grid (max. ang.)         AngularGrid ... 3 (Lebedev-194)
Angular grid pruning method      GridPruning ... 4 (adaptive)
Weight generation scheme         WeightScheme... mBecke (2022)
Basis function cutoff            BFCut       ... 1.0000e-11
Integration weight cutoff        WCut        ... 1.0000e-14
Partially contracted basis set               ... on
Rotationally invariant grid construction     ... off
Angular grids for H and He will be reduced by one unit
Diffuse basis detected: some atoms will have their outermost
                        angular grid increased by 1.

Total number of grid points                  ...    14355
Total number of batches                      ...      114
Average number of points per batch           ...      125
Average number of grid points per atom       ...     3589
UseSFitting                                  ... on
Initializing property integral containers    ... done (  0.0 sec)

SHARK setup successfully completed in   0.6 seconds

Maximum memory used throughout the entire STARTUP-calculation: 46.9 MB
-------------------------------------------------------------------------------
                                 ORCA GUESS
                   Start orbitals & Density for SCF / CASSCF
-------------------------------------------------------------------------------

------------
SCF SETTINGS
------------
Hamiltonian:
 Density Functional     Method          .... DFT(GTOs)
 Exchange Functional    Exchange        .... M06
 Correlation Functional Correlation     .... M06
 Gradients option       PostSCFGGA      .... off
 Hybrid DFT is turned on
   Fraction HF Exchange ScalHFX         ....  0.270000
   Scaling of DF-GGA-X  ScalDFX         ....  0.730000
   Scaling of DF-GGA-C  ScalDFC         ....  1.000000
   Scaling of DF-LDA-C  ScalLDAC        ....  1.000000
   Perturbative correction              ....  0.000000
 RI-approximation to the Coulomb term is turned on
   Number of AuxJ basis functions       .... 120
   RIJ-COSX (HFX calculated with COS-X)).... on


General Settings:
 Integral files         IntName         .... H2CO
 Hartree-Fock type      HFTyp           .... RHF
 Total Charge           Charge          ....    0
 Multiplicity           Mult            ....    1
 Number of Electrons    NEL             ....   16
 Basis Dimension        Dim             ....  252
 Nuclear Repulsion      ENuc            ....     31.3977973177 Eh

Convergence Acceleration:
 AO-DIIS                CNVDIIS         .... on
   Start iteration      DIISMaxIt       ....    12
   Startup error        DIISStart       ....  0.200000
   # of expansion vecs  DIISMaxEq       ....     5
   Bias factor          DIISBfac        ....   1.050
   Max. coefficient     DIISMaxC        ....  10.000
 MO-DIIS                CNVKDIIS        .... off
 Trust-Rad. Augm. Hess. CNVTRAH         .... auto
   Auto Start mean grad. ratio tolernc. ....  1.125000
   Auto Start start iteration           ....    50
   Auto Start num. interpolation iter.  ....    10
   Max. Number of Micro iterations      ....    24
   Max. Number of Macro iterations      .... Maxiter - #DIIS iter
   Number of Davidson start vectors     ....     2
   Converg. threshold    (grad. norm)   ....   1.000e-05
   Grad. Scal. Fac. for Micro threshold ....   0.100
   Minimum threshold for Micro iter.    ....   1.000e-02
   NR start threshold (gradient norm)   ....   1.000e-04
   Initial trust radius                 ....   0.400
   Minimum AH scaling param. (alpha)    ....   1.000
   Maximum AH scaling param. (alpha)    .... 1000.000
   Quad. conv. algorithm                .... NR
   White noise on init. David. guess    .... on
   Maximum white noise                  ....   0.010
   Pseudo random numbers                .... off
   Inactive MOs                         .... canonical
   Orbital update algorithm             .... Taylor
   Preconditioner                       .... Diag
   Full preconditioner red. dimension   ....   250
 SOSCF                  CNVSOSCF        .... on
   Start iteration      SOSCFMaxIt      ....   150
   Startup grad/error   SOSCFStart      ....  0.003300
   Hessian update       SOSCFHessUp     .... L-BFGS
 Level Shifting         CNVShift        .... on
   Level shift para.    LevelShift      ....    0.2500
   Turn off err/grad.   ShiftErr        ....    0.0010
 Zerner damping         CNVZerner       .... off
 Static damping         CNVDamp         .... on
   Fraction old density DampFac         ....    0.7000
   Max. Damping (<1)    DampMax         ....    0.9800
   Min. Damping (>=0)   DampMin         ....    0.0000
   Turn off err/grad.   DampErr         ....    0.1000

SCF Procedure:
 Maximum # iterations   MaxIter         ....   100
 SCF integral mode      SCFMode         .... Direct
   Integral package                     .... SHARK and LIBINT hybrid scheme
 Reset frequency        DirectResetFreq ....    20
 Integral Threshold     Thresh          ....  2.500e-11 Eh
 Primitive CutOff       TCut            ....  2.500e-12 Eh

Convergence Tolerance:
 Convergence Check Mode ConvCheckMode   .... Total+1el-Energy
 Convergence forced     ConvForced      .... 0
 Energy Change          TolE            ....  1.000e-08 Eh
 1-El. energy change                    ....  1.000e-05 Eh
 Orbital Gradient       TolG            ....  1.000e-05
 Orbital Rotation angle TolX            ....  1.000e-05
 DIIS Error             TolErr          ....  5.000e-07

------------------------------
INITIAL GUESS: MODEL POTENTIAL
------------------------------
Loading Hartree-Fock densities                     ... done
Calculating cut-offs                               ... done
Initializing the effective Hamiltonian             ... done
Setting up the integral package (SHARK)            ... done
Starting the Coulomb interaction                   ... done (   0.0 sec)
Making the grid                                    ... done (   0.0 sec)
Mapping shells                                     ... done
Starting the XC term evaluation                    ... done (   0.1 sec)
  promolecular density results
     # of electrons  =     15.999246621
     EX              =    -13.804654804
     EC              =     -0.510771382
     EX+EC           =    -14.315426186
Transforming the Hamiltonian                       ... done (   0.0 sec)
Diagonalizing the Hamiltonian                      ... done (   0.0 sec)
Back transforming the eigenvectors                 ... done (   0.0 sec)
Now organizing SCF variables                       ... done
                      ------------------
                      INITIAL GUESS DONE (   0.1 sec)
                      ------------------
             **** ENERGY FILE WAS UPDATED (H2CO.en.tmp) ****
Finished Guess after   0.2 sec
Maximum memory used throughout the entire GUESS-calculation: 26.7 MB

-------------------------------------------------------------------------------------------
                                      ORCA LEAN-SCF
                              memory conserving SCF solver
-------------------------------------------------------------------------------------------

----------------------------------------D-I-I-S--------------------------------------------
Iteration    Energy (Eh)           Delta-E    RMSDP     MaxDP     DIISErr   Damp  Time(sec)
-------------------------------------------------------------------------------------------
               ***  Starting incremental Fock matrix formation  ***
    1    -114.4234128270911697     0.00e+00  2.18e-03  1.67e-01  2.47e-01  0.700   2.0
    2    -114.4580285195899023    -3.46e-02  1.83e-03  1.26e-01  8.93e-02  0.700   1.2
                               ***Turning on AO-DIIS***
    3    -114.4679277856502040    -9.90e-03  1.35e-03  6.83e-02  2.82e-02  0.700   1.2
    4    -114.4750515233361625    -7.12e-03  3.19e-03  1.40e-01  1.60e-02  0.000   1.2
    5    -114.4922660722156138    -1.72e-02  1.57e-04  6.43e-03  5.62e-03  0.000   1.2
                              *** Initializing SOSCF ***
---------------------------------------S-O-S-C-F--------------------------------------
Iteration    Energy (Eh)           Delta-E    RMSDP     MaxDP     MaxGrad    Time(sec)
--------------------------------------------------------------------------------------
    6    -114.4923403621262423    -7.43e-05  1.04e-04  4.05e-03  1.30e-03     1.2
               *** Restarting incremental Fock matrix formation ***
    7    -114.4923479857737902    -7.62e-06  3.68e-05  1.36e-03  1.79e-04     2.0
    8    -114.4923484441014523    -4.58e-07  1.75e-05  7.85e-04  1.04e-04     1.9
    9    -114.4923485091256339    -6.50e-08  7.56e-06  2.71e-04  1.02e-04     1.8
   10    -114.4923485852998510    -7.62e-08  5.40e-06  2.14e-04  3.65e-05     1.9
   11    -114.4923486031801474    -1.79e-08  2.66e-06  1.07e-04  1.93e-05     1.9
   12    -114.4923486068924774    -3.71e-09  4.53e-07  3.21e-05  6.46e-06     1.8
                 **** Energy Check signals convergence ****

               *****************************************************
               *                     SUCCESS                       *
               *           SCF CONVERGED AFTER  12 CYCLES          *
               *****************************************************

Recomputing exchange energy using gridx3       ... done (    2.856 sec)
Old exchange energy                            :     -3.798282288 Eh
New exchange energy                            :     -3.798274235 Eh
Exchange energy change after final integration :      0.000008052 Eh
Total energy after final integration           :   -114.492340555 Eh
             **** ENERGY FILE WAS UPDATED (H2CO.en.tmp) ****

----------------
TOTAL SCF ENERGY
----------------

Total Energy       :       -114.49234055471764 Eh           -3115.49498 eV

Components:
Nuclear Repulsion  :         31.39779731768289 Eh             854.37750 eV
Electronic Energy  :       -145.89014592457534 Eh           -3969.87270 eV
One Electron Energy:       -217.81647793941903 Eh           -5927.08769 eV
Two Electron Energy:         71.92633201484368 Eh            1957.21500 eV

Virial components:
Potential Energy   :       -228.49316226059824 Eh           -6217.61504 eV
Kinetic Energy     :        114.00082170588060 Eh            3102.12007 eV
Virial Ratio       :          2.00431153777211

DFT components:
N(Alpha)           :        8.000003269816 electrons
N(Beta)            :        8.000003269816 electrons
N(Total)           :       16.000006539632 electrons
E(XC)              :      -10.859948644591 Eh       

---------------
SCF CONVERGENCE
---------------

  Last Energy change         ...    3.7123e-09  Tolerance :   1.0000e-08
  Last MAX-Density change    ...    3.2141e-05  Tolerance :   1.0000e-07
  Last RMS-Density change    ...    4.5256e-07  Tolerance :   5.0000e-09
  Last DIIS Error            ...    1.2960e-03  Tolerance :   5.0000e-07
  Last Orbital Gradient      ...    6.4639e-06  Tolerance :   1.0000e-05
  Last Orbital Rotation      ...    2.4035e-06  Tolerance :   1.0000e-05


----------------
ORBITAL ENERGIES
----------------

  NO   OCC          E(Eh)            E(eV) 
   0   2.0000     -19.230242      -523.2815 
   1   2.0000     -10.340345      -281.3751 
   2   2.0000      -1.089131       -29.6368 
   3   2.0000      -0.650243       -17.6940 
   4   2.0000      -0.515168       -14.0184 
   5   2.0000      -0.472155       -12.8480 
   6   2.0000      -0.425056       -11.5664 
   7   2.0000      -0.289678        -7.8825 
   8   0.0000      -0.053948        -1.4680 
   9   0.0000      -0.038600        -1.0504 
  10   0.0000      -0.013494        -0.3672 
  11   0.0000      -0.004918        -0.1338 
  12   0.0000       0.006339         0.1725 
  13   0.0000       0.051344         1.3971 
  14   0.0000       0.052406         1.4260 
  15   0.0000       0.063533         1.7288 
  16   0.0000       0.079423         2.1612 
  17   0.0000       0.079974         2.1762 
  18   0.0000       0.086471         2.3530 
*Only the first 10 virtual orbitals were printed.

                    ********************************
                    * MULLIKEN POPULATION ANALYSIS *
                    ********************************

-----------------------
MULLIKEN ATOMIC CHARGES
-----------------------
   0 C :    1.545571
   1 O :   -0.814087
   2 H :   -0.365744
   3 H :   -0.365741
Sum of atomic charges:    0.0000000

--------------------------------
MULLIKEN REDUCED ORBITAL CHARGES
--------------------------------
  0 C s       :     2.432239  s :     2.432239
      pz      :     0.659210  p :     1.913745
      px      :     0.580747
      py      :     0.673789
      dz2     :    -0.018391  d :     0.078943
      dxz     :     0.037986
      dyz     :    -0.000000
      dx2y2   :    -0.059562
      dxy     :     0.118911
      f0      :     0.003302  f :     0.021924
      f+1     :    -0.001221
      f-1     :    -0.001074
      f+2     :     0.013243
      f-2     :    -0.000000
      f+3     :    -0.010551
      f-3     :     0.018225
      g0      :     0.000018  g :     0.007577
      g+1     :     0.001012
      g-1     :     0.000000
      g+2     :    -0.000108
      g-2     :     0.000208
      g+3     :     0.001390
      g-3     :     0.000000
      g+4     :    -0.000995
      g-4     :     0.006050

  1 O s       :     4.452356  s :     4.452356
      pz      :     1.233649  p :     4.309851
      px      :     1.263034
      py      :     1.813167
      dz2     :     0.002717  d :     0.049852
      dxz     :     0.012278
      dyz     :     0.000000
      dx2y2   :     0.009610
      dxy     :     0.025246
      f0      :     0.000449  f :     0.001836
      f+1     :    -0.001488
      f-1     :     0.000382
      f+2     :     0.000795
      f-2     :     0.000000
      f+3     :    -0.001026
      f-3     :     0.002723
      g0      :    -0.000214  g :     0.000193
      g+1     :     0.000466
      g-1     :     0.000000
      g+2     :    -0.000450
      g-2     :     0.000080
      g+3     :     0.000296
      g-3     :     0.000000
      g+4     :    -0.000450
      g-4     :     0.000465

  2 H s       :     1.293196  s :     1.293196
      pz      :     0.015179  p :     0.074067
      px      :     0.017677
      py      :     0.041212
      dz2     :     0.000612  d :     0.000841
      dxz     :     0.005074
      dyz     :    -0.001415
      dx2y2   :    -0.007057
      dxy     :     0.003628
      f0      :    -0.000635  f :    -0.002361
      f+1     :     0.000227
      f-1     :    -0.000508
      f+2     :    -0.000013
      f-2     :    -0.000228
      f+3     :    -0.000200
      f-3     :    -0.001004

  3 H s       :     1.293193  s :     1.293193
      pz      :     0.015180  p :     0.074068
      px      :     0.017675
      py      :     0.041213
      dz2     :     0.000612  d :     0.000840
      dxz     :     0.005074
      dyz     :    -0.001415
      dx2y2   :    -0.007058
      dxy     :     0.003628
      f0      :    -0.000635  f :    -0.002361
      f+1     :     0.000227
      f-1     :    -0.000508
      f+2     :    -0.000013
      f-2     :    -0.000228
      f+3     :    -0.000200
      f-3     :    -0.001004



                     *******************************
                     * LOEWDIN POPULATION ANALYSIS *
                     *******************************

----------------------
LOEWDIN ATOMIC CHARGES
----------------------
   0 C :    0.127122
   1 O :    0.664850
   2 H :   -0.395986
   3 H :   -0.395986

-------------------------------
LOEWDIN REDUCED ORBITAL CHARGES
-------------------------------
  0 C s       :     2.528034  s :     2.528034
      pz      :     0.432158  p :     2.041615
      px      :     0.822394
      py      :     0.787063
      dz2     :     0.062934  d :     0.785887
      dxz     :     0.101284
      dyz     :     0.000000
      dx2y2   :     0.201363
      dxy     :     0.420306
      f0      :     0.031119  f :     0.360783
      f+1     :     0.049323
      f-1     :     0.012931
      f+2     :     0.053086
      f-2     :     0.000000
      f+3     :     0.092036
      f-3     :     0.122287
      g0      :     0.005241  g :     0.156559
      g+1     :     0.020190
      g-1     :     0.000000
      g+2     :     0.012193
      g-2     :     0.013066
      g+3     :     0.020145
      g-3     :     0.000000
      g+4     :     0.024722
      g-4     :     0.061002

  1 O s       :     3.145277  s :     3.145277
      pz      :     1.003537  p :     3.786784
      px      :     1.416961
      py      :     1.366287
      dz2     :     0.030664  d :     0.255836
      dxz     :     0.031432
      dyz     :     0.000000
      dx2y2   :     0.063353
      dxy     :     0.130386
      f0      :     0.006476  f :     0.113095
      f+1     :     0.014204
      f-1     :     0.005007
      f+2     :     0.013021
      f-2     :     0.000000
      f+3     :     0.015049
      f-3     :     0.059337
      g0      :     0.002258  g :     0.034157
      g+1     :     0.002974
      g-1     :     0.000000
      g+2     :     0.004951
      g-2     :     0.002029
      g+3     :     0.002546
      g-3     :     0.000000
      g+4     :     0.008552
      g-4     :     0.010848

  2 H s       :     0.713931  s :     0.713931
      pz      :     0.049938  p :     0.300770
      px      :     0.092018
      py      :     0.158815
      dz2     :     0.035077  d :     0.251430
      dxz     :     0.031418
      dyz     :     0.029508
      dx2y2   :     0.098678
      dxy     :     0.056750
      f0      :     0.013288  f :     0.129855
      f+1     :     0.009854
      f-1     :     0.011608
      f+2     :     0.000075
      f-2     :     0.016790
      f+3     :     0.022808
      f-3     :     0.055433

  3 H s       :     0.713931  s :     0.713931
      pz      :     0.049938  p :     0.300770
      px      :     0.092018
      py      :     0.158815
      dz2     :     0.035077  d :     0.251430
      dxz     :     0.031418
      dyz     :     0.029508
      dx2y2   :     0.098678
      dxy     :     0.056750
      f0      :     0.013288  f :     0.129855
      f+1     :     0.009854
      f-1     :     0.011608
      f+2     :     0.000075
      f-2     :     0.016790
      f+3     :     0.022808
      f-3     :     0.055433



                      *****************************
                      * MAYER POPULATION ANALYSIS *
                      *****************************

  NA   - Mulliken gross atomic population
  ZA   - Total nuclear charge
  QA   - Mulliken gross atomic charge
  VA   - Mayer's total valence
  BVA  - Mayer's bonded valence
  FA   - Mayer's free valence

  ATOM       NA         ZA         QA         VA         BVA        FA
  0 C      4.4544     6.0000     1.5456     2.8268     2.8268     0.0000
  1 O      8.8141     8.0000    -0.8141     1.3478     1.3478     0.0000
  2 H      1.3657     1.0000    -0.3657     0.9468     0.9468     0.0000
  3 H      1.3657     1.0000    -0.3657     0.9468     0.9468     0.0000

  Mayer bond orders larger than 0.100000
B(  0-C ,  1-O ) :   1.1218 B(  0-C ,  2-H ) :   0.8525 B(  0-C ,  3-H ) :   0.8525 
B(  1-O ,  2-H ) :   0.1130 B(  1-O ,  3-H ) :   0.1130 

-------
TIMINGS
-------

Total SCF time: 0 days 0 hours 0 min 22 sec 

Total time                  ....      22.341 sec
Sum of individual times     ....      22.328 sec  ( 99.9%)

SCF preparation             ....       0.048 sec  (  0.2%)
Fock matrix formation       ....      22.135 sec  ( 99.1%)
  Startup                   ....       0.002 sec  (  0.0% of F)
  Split-RI-J                ....       0.617 sec  (  2.8% of F)
  Chain of spheres X        ....      14.381 sec  ( 65.0% of F)
  XC integration            ....       7.094 sec  ( 32.1% of F)
    Basis function eval.    ....       0.590 sec  (  8.3% of XC)
    Density eval.           ....       2.541 sec  ( 35.8% of XC)
    XC-Functional eval.     ....       0.138 sec  (  2.0% of XC)
    XC-Potential eval.      ....       3.777 sec  ( 53.2% of XC)
Diagonalization             ....       0.000 sec  (  0.0%)
Density matrix formation    ....       0.012 sec  (  0.1%)
Total Energy calculation    ....       0.012 sec  (  0.1%)
Population analysis         ....       0.005 sec  (  0.0%)
Orbital Transformation      ....       0.018 sec  (  0.1%)
Orbital Orthonormalization  ....       0.000 sec  (  0.0%)
DIIS solution               ....       0.067 sec  (  0.3%)
SOSCF solution              ....       0.032 sec  (  0.1%)
Finished LeanSCF after  22.3 sec

Maximum memory used throughout the entire LEANSCF-calculation: 29.5 MB

-------------------------   --------------------
FINAL SINGLE POINT ENERGY      -114.492340554718
-------------------------   --------------------

------------------------------------------------------------------------------
                         ORCA SCF GRADIENT CALCULATION
------------------------------------------------------------------------------

Nuc. rep. gradient        (SHARK) ... done (  0.0 sec)
HCore & Overlap gradient  (SHARK) ... done (  0.0 sec)
Split-RIJ-J gradient      (SHARK) ... done (  0.6 sec)
COSX-gradient                     ... done ( 10.0 sec)
XC gradient                       ... done (  1.2 sec)

------------------
CARTESIAN GRADIENT
------------------

   1   C   :   -0.014284441   -0.000000305   -0.000000560
   2   O   :    0.013603437    0.000000193    0.000000171
   3   H   :    0.000340502    0.000699967    0.000000140
   4   H   :    0.000340501   -0.000699855    0.000000249

Difference to translation invariance:
           :    0.0000000000    0.0000000000   -0.0000000000

Difference to rotation invariance:
           :   -0.0000001426   -0.0000002814    0.0000003112

Norm of the Cartesian gradient     ...    0.0197562752
RMS gradient                       ...    0.0057031454
MAX gradient                       ...    0.0142844413

-------
TIMINGS
-------

Total SCF gradient time     ....       11.797 sec

Densities                   ....       0.000 sec  (  0.0%)
One electron gradient       ....       0.046 sec  (  0.4%)
RI-J Coulomb gradient       ....       0.565 sec  (  4.8%)
COSX gradient               ....      10.004 sec  ( 84.8%)
XC gradient                 ....       1.180 sec  ( 10.0%)

Maximum memory used throughout the entire SCFGRAD-calculation: 36.9 MB
------------------------------------------------------------------------------
                         ORCA GEOMETRY RELAXATION STEP
------------------------------------------------------------------------------

Reading the OPT-File                    .... done
Getting information on internals        .... done
Copying old internal coords+grads       .... done
Making the new internal coordinates     .... (2022 redundants) done
Validating the new internal coordinates .... (2022 redundants) done
Calculating the B-matrix                .... done
Calculating the G,G- and P matrices     .... done
Transforming gradient to internals      .... done
Projecting the internal gradient        .... done
Number of atoms                         ....   4
Number of internal coordinates          ....   7
Current Energy                          ....  -114.492340555 Eh
Current gradient norm                   ....     0.019756275 Eh/bohr
Maximum allowed component of the step   ....  0.300
Current trust radius                    ....  0.300
Evaluating the initial hessian          ....  (Almloef) done
Projecting the Hessian                  .... done
Forming the augmented Hessian           .... done
Diagonalizing the augmented Hessian     .... done
Last element of RFO vector              ....  0.999919771
Lowest eigenvalues of augmented Hessian:
 -0.000168770  0.115688921  0.318097476  0.337256137  0.337257145
Length of the computed step             ....  0.012667954
The final length of the internal step   ....  0.012667954
Converting the step to Cartesian space:
 Initial RMS(Int)=    0.0047880366
Transforming coordinates:
 Iter   0:  RMS(Cart)=    0.0029333561 RMS(Int)=    0.0047880956
done
Storing new coordinates                 .... done

                                .--------------------.
          ----------------------|Geometry convergence|-------------------------
          Item                value                   Tolerance       Converged
          ---------------------------------------------------------------------
          RMS gradient        0.0051639806            0.0001000000      NO
          MAX gradient        0.0136034374            0.0003000000      NO
          RMS step            0.0047880366            0.0020000000      NO
          MAX step            0.0120382570            0.0040000000      NO
          ........................................................
          Max(Bonds)      0.0064      Max(Angles)    0.17
          Max(Dihed)        0.00      Max(Improp)    0.00
          ---------------------------------------------------------------------

The optimization has not yet converged - more geometry cycles are needed


    ---------------------------------------------------------------------------
                         Redundant Internal Coordinates
                            (Angstroem and degrees)

        Definition                    Value    dE/dq     Step     New-Value
    ----------------------------------------------------------------------------
     1. B(O   1,C   0)                1.1987  0.013603 -0.0064    1.1924   
     2. B(H   2,C   0)                1.1078  0.000412 -0.0006    1.1072   
     3. B(H   3,C   0)                1.1078  0.000412 -0.0006    1.1072   
     4. A(O   1,C   0,H   3)          122.07 -0.000461    0.08    122.15   
     5. A(H   2,C   0,H   3)          115.87  0.000921   -0.17    115.70   
     6. A(O   1,C   0,H   2)          122.07 -0.000461    0.08    122.15   
     7. I(O   1,H   3,H   2,C   0)     -0.00 -0.000001    0.00      0.00   
    ----------------------------------------------------------------------------

Geometry step timings:
Preparation and reading OPT file:      0.000 s ( 9.821 %)
Internal coordinates            :      0.000 s ( 2.679 %)
B/P matrices and projection     :      0.000 s (14.063 %)
Hessian update/contruction      :      0.000 s (16.964 %)
Making the step                 :      0.000 s ( 8.036 %)
Converting the step to Cartesian:      0.000 s ( 4.911 %)
Storing new data                :      0.000 s ( 3.125 %)
Checking convergence            :      0.000 s ( 0.000 %)
Final printing                  :      0.000 s (39.955 %)
Total time                      :      0.000 s

Time for energy+gradient        :     35.040 s
Time for complete geometry iter :     35.069 s

         *************************************************************
         *                GEOMETRY OPTIMIZATION CYCLE   2            *
         *************************************************************
---------------------------------
CARTESIAN COORDINATES (ANGSTROEM)
---------------------------------
  C     -0.426402   -1.070959    0.000011
  O      0.765966   -1.070959   -0.000003
  H     -1.015549   -0.133524   -0.000003
  H     -1.015548   -2.008394    0.000036

----------------------------
CARTESIAN COORDINATES (A.U.)
----------------------------
  NO LB      ZA    FRAG     MASS         X           Y           Z
   0 C     6.0000    0    12.011   -0.805784   -2.023819    0.000021
   1 O     8.0000    0    15.999    1.447467   -2.023820   -0.000006
   2 H     1.0000    0     1.008   -1.919109   -0.252323   -0.000006
   3 H     1.0000    0     1.008   -1.919108   -3.795315    0.000067

--------------------------------
INTERNAL COORDINATES (ANGSTROEM)
--------------------------------
 C      0   0   0     0.000000000000     0.00000000     0.00000000
 O      1   0   0     1.192368628863     0.00000000     0.00000000
 H      1   2   0     1.107193636941   122.14799005     0.00000000
 H      1   2   3     1.107193786106   122.14794189   179.99968381

---------------------------
INTERNAL COORDINATES (A.U.)
---------------------------
 C      0   0   0     0.000000000000     0.00000000     0.00000000
 O      1   0   0     2.253250159230     0.00000000     0.00000000
 H      1   2   0     2.092292751039   122.14799005     0.00000000
 H      1   2   3     2.092293032920   122.14794189   179.99968381

------------------------------------------------------------------------------
                   ___                                                        
                  /   \      - P O W E R E D   B Y -                         
                 /     \                                                     
                 |  |  |   _    _      __       _____    __    __             
                 |  |  |  | |  | |    /  \     |  _  \  |  |  /  |          
                  \  \/   | |  | |   /    \    | | | |  |  | /  /          
                 / \  \   | |__| |  /  /\  \   | |_| |  |  |/  /          
                |  |  |   |  __  | /  /__\  \  |    /   |      \           
                |  |  |   | |  | | |   __   |  |    \   |  |\   \          
                \     /   | |  | | |  |  |  |  | |\  \  |  | \   \       
                 \___/    |_|  |_| |__|  |__|  |_| \__\ |__|  \__/        
                                                                              
                      - O R C A' S   B I G   F R I E N D -                    
                                      &                                       
                       - I N T E G R A L  F E E D E R -                       
                                                                              
 v1 FN, 2020, v2 2021, v3 2022-2024                                           
------------------------------------------------------------------------------


----------------------
SHARK INTEGRAL PACKAGE
----------------------

Number of atoms                             ...      4
Number of basis functions                   ...    266
Number of shells                            ...     82
Maximum angular momentum                    ...      4
Integral batch strategy                     ... SHARK/LIBINT Hybrid
RI-J (if used) integral strategy            ... SPLIT-RIJ (Revised 2003 algorithm where possible)
Printlevel                                  ...      1
Contraction scheme used                     ... PARTIAL GENERAL contraction
Prescreening option                         ... SCHWARTZ
   Thresh                                   ... 2.500e-11
   Tcut                                     ... 2.500e-12
   Tpresel                                  ... 2.500e-12 
Coulomb Range Separation                    ... NOT USED
Exchange Range Separation                   ... NOT USED
Multipole approximations                    ... NOT USED
Finite Nucleus Model                        ... NOT USED
CABS basis                                  ... NOT available
Auxiliary Coulomb fitting basis             ... AVAILABLE
   # of basis functions in Aux-J            ...    120
   # of shells in Aux-J                     ...     40
   Maximum angular momentum in Aux-J        ...      4
Auxiliary J/K fitting basis                 ... NOT available
Auxiliary Correlation fitting basis         ... NOT available
Auxiliary 'external' fitting basis          ... NOT available

Checking pre-screening integrals            ... done (  0.0 sec) Dimension = 82
Save PGC pre-screening integrals            ... done (  0.0 sec) Dimension = 82
Calculate PGC overlap integrals             ... done (  0.0 sec) Dimension = 68
Calculating pre-screening integrals (ORCA)  ... done (  0.1 sec) Dimension = 68
Check shell pair data                       ... done (  0.0 sec)
Shell pair information
Shell pair cut-off parameter TPreSel        ...   2.5e-12
Total number of shell pairs                 ...      3403
Shell pairs after pre-screening             ...      3298
Total number of primitive shell pairs       ...      4107
Primitive shell pairs kept                  ...      3875
          la=0 lb=0:    587 shell pairs
          la=1 lb=0:    634 shell pairs
          la=1 lb=1:    171 shell pairs
          la=2 lb=0:    494 shell pairs
          la=2 lb=1:    252 shell pairs
          la=2 lb=2:    105 shell pairs
          la=3 lb=0:    360 shell pairs
          la=3 lb=1:    180 shell pairs
          la=3 lb=2:    140 shell pairs
          la=3 lb=3:     55 shell pairs
          la=4 lb=0:    142 shell pairs
          la=4 lb=1:     72 shell pairs
          la=4 lb=2:     56 shell pairs
          la=4 lb=3:     40 shell pairs
          la=4 lb=4:     10 shell pairs

Calculating one electron integrals          ... done (  0.0 sec)
Calculating RI/J V-Matrix + Cholesky decomp.... done (  0.0 sec)
Calculating Nuclear repulsion               ... done (  0.0 sec) ENN=     31.526008552996 Eh

Diagonalization of the overlap matrix:
Smallest eigenvalue                        ... 2.227e-05
Time for diagonalization                   ...    0.004 sec
Threshold for overlap eigenvalues          ... 1.000e-07
Number of eigenvalues below threshold      ... 0
Time for construction of square roots      ...    0.001 sec
Total time needed                          ...    0.005 sec

-------------------
DFT GRID GENERATION
-------------------

General Integration Accuracy     IntAcc      ... 4.388
Radial Grid Type                 RadialGrid  ... OptM3 with GC (2021)
Angular Grid (max. ang.)         AngularGrid ... 4 (Lebedev-302)
Angular grid pruning method      GridPruning ... 4 (adaptive)
Weight generation scheme         WeightScheme... mBecke (2022)
Basis function cutoff            BFCut       ... 1.0000e-11
Integration weight cutoff        WCut        ... 1.0000e-14
Partially contracted basis set               ... off
Rotationally invariant grid construction     ... off
Angular grids for H and He will be reduced by one unit
Diffuse basis detected: some atoms will have their outermost
                        angular grid increased by 1.

Total number of grid points                  ...    19921
Total number of batches                      ...      313
Average number of points per batch           ...       63
Average number of grid points per atom       ...     4980

---------------------
SHARK GRID GENERATION
---------------------

General Integration Accuracy     IntAcc      ... 4.388
Radial Grid Type                 RadialGrid  ... OptM3 with GC (2021)
Angular Grid (max. ang.)         AngularGrid ... 4 (Lebedev-302)
Angular grid pruning method      GridPruning ... 4 (adaptive)
Weight generation scheme         WeightScheme... mBecke (2022)
Basis function cutoff            BFCut       ... 1.0000e-11
Integration weight cutoff        WCut        ... 1.0000e-14
Partially contracted basis set               ... off
Rotationally invariant grid construction     ... off
Angular grids for H and He will be reduced by one unit
Diffuse basis detected: some atoms will have their outermost
                        angular grid increased by 1.
Steep s-basis detected: some atoms will have their radial
                        grid points doubled.

Total number of grid points                  ...    32978
Total number of batches                      ...      518
Average number of points per batch           ...       63
Average number of grid points per atom       ...     8244

--------------------
COSX GRID GENERATION
--------------------

GRIDX 1
-------
General Integration Accuracy     IntAcc      ... 3.816
Radial Grid Type                 RadialGrid  ... OptM3 with GC (2021)
Angular Grid (max. ang.)         AngularGrid ... 1 (Lebedev-50)
Angular grid pruning method      GridPruning ... 4 (adaptive)
Weight generation scheme         WeightScheme... mBecke (2022)
Basis function cutoff            BFCut       ... 1.0000e-11
Integration weight cutoff        WCut        ... 1.0000e-14
Partially contracted basis set               ... on
Rotationally invariant grid construction     ... off
Angular grids for H and He will be reduced by one unit
Diffuse basis detected: some atoms will have their outermost
                        angular grid increased by 1.

Total number of grid points                  ...     2512
Total number of batches                      ...       22
Average number of points per batch           ...      114
Average number of grid points per atom       ...      628
UseSFitting                                  ... on

GRIDX 2
-------
General Integration Accuracy     IntAcc      ... 4.020
Radial Grid Type                 RadialGrid  ... OptM3 with GC (2021)
Angular Grid (max. ang.)         AngularGrid ... 2 (Lebedev-110)
Angular grid pruning method      GridPruning ... 4 (adaptive)
Weight generation scheme         WeightScheme... mBecke (2022)
Basis function cutoff            BFCut       ... 1.0000e-11
Integration weight cutoff        WCut        ... 1.0000e-14
Partially contracted basis set               ... on
Rotationally invariant grid construction     ... off
Angular grids for H and He will be reduced by one unit
Diffuse basis detected: some atoms will have their outermost
                        angular grid increased by 1.

Total number of grid points                  ...     6378
Total number of batches                      ...       52
Average number of points per batch           ...      122
Average number of grid points per atom       ...     1594
UseSFitting                                  ... on

GRIDX 3
-------
General Integration Accuracy     IntAcc      ... 4.338
Radial Grid Type                 RadialGrid  ... OptM3 with GC (2021)
Angular Grid (max. ang.)         AngularGrid ... 3 (Lebedev-194)
Angular grid pruning method      GridPruning ... 4 (adaptive)
Weight generation scheme         WeightScheme... mBecke (2022)
Basis function cutoff            BFCut       ... 1.0000e-11
Integration weight cutoff        WCut        ... 1.0000e-14
Partially contracted basis set               ... on
Rotationally invariant grid construction     ... off
Angular grids for H and He will be reduced by one unit
Diffuse basis detected: some atoms will have their outermost
                        angular grid increased by 1.

Total number of grid points                  ...    14355
Total number of batches                      ...      114
Average number of points per batch           ...      125
Average number of grid points per atom       ...     3589
UseSFitting                                  ... on
Initializing property integral containers    ... done (  0.0 sec)

SHARK setup successfully completed in   0.6 seconds

Maximum memory used throughout the entire STARTUP-calculation: 47.4 MB
Occupation numbers will be reassigned to an Aufbau configuration
             **** ENERGY FILE WAS UPDATED (H2CO.en.tmp) ****
Finished Guess after   0.0 sec
Maximum memory used throughout the entire GUESS-calculation: 27.2 MB
----------------------------------------D-I-I-S--------------------------------------------
Iteration    Energy (Eh)           Delta-E    RMSDP     MaxDP     DIISErr   Damp  Time(sec)
-------------------------------------------------------------------------------------------
               ***  Starting incremental Fock matrix formation  ***
    1    -114.4924210744340485     0.00e+00  2.45e-05  9.37e-04  4.12e-03  0.700   1.8
                              *** Initializing SOSCF ***
---------------------------------------S-O-S-C-F--------------------------------------
Iteration    Energy (Eh)           Delta-E    RMSDP     MaxDP     MaxGrad    Time(sec)
--------------------------------------------------------------------------------------
    2    -114.4924303000325381    -9.23e-06  6.80e-05  2.38e-03  2.96e-03     1.2
               *** Restarting incremental Fock matrix formation ***
    3    -114.4924512981903035    -2.10e-05  2.25e-05  9.14e-04  1.90e-04     2.0
    4    -114.4924519163794798    -6.18e-07  1.14e-05  5.60e-04  1.49e-04     1.9
    5    -114.4924522784365593    -3.62e-07  3.50e-06  1.50e-04  7.61e-05     1.9
    6    -114.4924522485823957     2.99e-08  2.88e-06  1.13e-04  9.40e-05     1.8
    7    -114.4924523194028154    -7.08e-08  7.75e-07  3.18e-05  1.74e-05     1.9
    8    -114.4924523195542463    -1.51e-10  4.04e-07  2.40e-05  1.07e-05     1.8
                 **** Energy Check signals convergence ****

               *****************************************************
               *                     SUCCESS                       *
               *           SCF CONVERGED AFTER   8 CYCLES          *
               *****************************************************

Recomputing exchange energy using gridx3       ... done (    2.814 sec)
Old exchange energy                            :     -3.800177085 Eh
New exchange energy                            :     -3.800169118 Eh
Exchange energy change after final integration :      0.000007967 Eh
Total energy after final integration           :   -114.492444353 Eh
             **** ENERGY FILE WAS UPDATED (H2CO.en.tmp) ****

----------------
TOTAL SCF ENERGY
----------------

Total Energy       :       -114.49244435280630 Eh           -3115.49780 eV

Components:
Nuclear Repulsion  :         31.52600855299615 Eh             857.86631 eV
Electronic Energy  :       -146.01846087255041 Eh           -3973.36432 eV
One Electron Energy:       -218.06025001706467 Eh           -5933.72107 eV
Two Electron Energy:         72.04178914451427 Eh            1960.35675 eV

Virial components:
Potential Energy   :       -228.52121856616503 Eh           -6218.37849 eV
Kinetic Energy     :        114.02877421335874 Eh            3102.88069 eV
Virial Ratio       :          2.00406625558019

DFT components:
N(Alpha)           :        8.000003844519 electrons
N(Beta)            :        8.000003844519 electrons
N(Total)           :       16.000007689038 electrons
E(XC)              :      -10.864617788179 Eh       

---------------
SCF CONVERGENCE
---------------

  Last Energy change         ...    1.5143e-10  Tolerance :   1.0000e-08
  Last MAX-Density change    ...    2.4026e-05  Tolerance :   1.0000e-07
  Last RMS-Density change    ...    4.0450e-07  Tolerance :   5.0000e-09
  Last DIIS Error            ...    2.9558e-03  Tolerance :   5.0000e-07
  Last Orbital Gradient      ...    1.0744e-05  Tolerance :   1.0000e-05
  Last Orbital Rotation      ...    1.7877e-06  Tolerance :   1.0000e-05


Total SCF time: 0 days 0 hours 0 min 17 sec 
Finished LeanSCF after  17.2 sec

Maximum memory used throughout the entire LEANSCF-calculation: 29.6 MB

-------------------------   --------------------
FINAL SINGLE POINT ENERGY      -114.492444352806
-------------------------   --------------------

------------------------------------------------------------------------------
                         ORCA SCF GRADIENT CALCULATION
------------------------------------------------------------------------------

Nuc. rep. gradient        (SHARK) ... done (  0.0 sec)
HCore & Overlap gradient  (SHARK) ... done (  0.0 sec)
Split-RIJ-J gradient      (SHARK) ... done (  0.5 sec)
COSX-gradient                     ... done ( 10.0 sec)
XC gradient                       ... done (  1.2 sec)

------------------
CARTESIAN GRADIENT
------------------

   1   C   :   -0.004587986   -0.000000476    0.000000160
   2   O   :    0.002912876   -0.000000042   -0.000000199
   3   H   :    0.000837549   -0.000008540   -0.000000133
   4   H   :    0.000837561    0.000009059    0.000000172

Difference to translation invariance:
           :    0.0000000000    0.0000000000   -0.0000000000

Difference to rotation invariance:
           :   -0.0000005397    0.0000004254   -0.0000006468

Norm of the Cartesian gradient     ...    0.0055621593
RMS gradient                       ...    0.0016056571
MAX gradient                       ...    0.0045879861

-------
TIMINGS
-------

Total SCF gradient time     ....       11.849 sec

Densities                   ....       0.000 sec  (  0.0%)
One electron gradient       ....       0.046 sec  (  0.4%)
RI-J Coulomb gradient       ....       0.547 sec  (  4.6%)
COSX gradient               ....      10.010 sec  ( 84.5%)
XC gradient                 ....       1.245 sec  ( 10.5%)

Maximum memory used throughout the entire SCFGRAD-calculation: 36.9 MB
------------------------------------------------------------------------------
                         ORCA GEOMETRY RELAXATION STEP
------------------------------------------------------------------------------

Reading the OPT-File                    .... done
Getting information on internals        .... done
Copying old internal coords+grads       .... done
Making the new internal coordinates     .... (2022 redundants) done
Validating the new internal coordinates .... (2022 redundants) done
Calculating the B-matrix                .... done
Calculating the G,G- and P matrices     .... done
Transforming gradient to internals      .... done
Projecting the internal gradient        .... done
Number of atoms                         ....   4
Number of internal coordinates          ....   7
Current Energy                          ....  -114.492444353 Eh
Current gradient norm                   ....     0.005562159 Eh/bohr
Maximum allowed component of the step   ....  0.300
Current trust radius                    ....  0.300
Updating the Hessian (BFGS)             .... done
Forming the augmented Hessian           .... done
Diagonalizing the augmented Hessian     .... done
Last element of RFO vector              ....  0.999976871
Lowest eigenvalues of augmented Hessian:
 -0.000018915  0.115688922  0.294960315  0.337256137  0.342141648
Length of the computed step             ....  0.006801396
The final length of the internal step   ....  0.006801396
Converting the step to Cartesian space:
 Initial RMS(Int)=    0.0025706860
Transforming coordinates:
 Iter   0:  RMS(Cart)=    0.0011496453 RMS(Int)=    0.0025703776
done
Storing new coordinates                 .... done
The predicted energy change is          ....    -0.000009458
Previously predicted energy change      ....    -0.000084399
Actually observed energy change         ....    -0.000103798
Ratio of predicted to observed change   ....     1.229854569
New trust radius                        ....     0.450000000

                                .--------------------.
          ----------------------|Geometry convergence|-------------------------
          Item                value                   Tolerance       Converged
          ---------------------------------------------------------------------
          Energy change      -0.0001037981            0.0000050000      NO
[...]
  0-1A  -> 40-1A   12.913130  104151.4    96.0   0.000000000   0.00000   0.00000  -0.00000   0.00000
  0-1A  -> 41-1A   12.930746  104293.5    95.9   0.007416798   0.00529   0.07271  -0.00000  -0.00000
  0-1A  -> 42-1A   12.955122  104490.1    95.7   0.000000000   0.00000   0.00000   0.00000   0.00000
  0-1A  -> 43-1A   13.232333  106726.0    93.7   0.008704511   0.00635   0.00001  -0.07968   0.00000
  0-1A  -> 44-1A   13.254205  106902.4    93.5   0.045607628   0.03332  -0.18254  -0.00000   0.00000
  0-1A  -> 45-1A   13.342364  107613.4    92.9   0.050370243   0.03705  -0.00000  -0.19247   0.00000
  0-1A  -> 46-1A   13.457669  108543.4    92.1   0.014132440   0.01048  -0.10239   0.00000   0.00000
  0-1A  -> 47-1A   13.769011  111054.6    90.0   0.011187896   0.00849  -0.09215  -0.00000  -0.00000
  0-1A  -> 48-1A   13.839655  111624.4    89.6   0.007250919   0.00553   0.07438  -0.00000  -0.00000
  0-1A  -> 49-1A   13.902439  112130.7    89.2   0.000257638   0.00020  -0.00000  -0.00000   0.01405
  0-1A  -> 50-1A   13.990492  112840.9    88.6   0.000000000   0.00000  -0.00000  -0.00000   0.00001

------------------------------------------------------------------------------------------
                     CD SPECTRUM VIA TRANSITION ELECTRIC DIPOLE MOMENTS    
------------------------------------------------------------------------------------------
     Transition      Energy     Energy  Wavelength    R        MX        MY        MZ   
                      (eV)      (cm-1)    (nm)   (1e40*cgs)   (au)      (au)      (au)  
------------------------------------------------------------------------------------------
  0-1A  ->  1-1A    3.956338   31910.0   313.4   -0.00032  -0.59994   0.00000   0.00001
  0-1A  ->  2-1A    5.932818   47851.4   209.0   -0.00000   0.00000   0.00000   0.16633
  0-1A  ->  3-1A    6.701603   54052.1   185.0    0.00001  -0.00000  -0.00000   0.00000
  0-1A  ->  4-1A    6.710834   54126.5   184.8    0.00003   0.00000   0.00001   0.25678
  0-1A  ->  5-1A    6.898951   55643.8   179.7   -0.00003   0.05211  -0.00000  -0.00000
  0-1A  ->  6-1A    8.270655   66707.3   149.9   -0.00011  -0.00000  -0.00001  -0.36700
  0-1A  ->  7-1A    8.416436   67883.1   147.3   -0.00002  -0.00000  -0.00000  -0.00000
  0-1A  ->  8-1A    8.715711   70297.0   142.3   -0.00012  -0.00000  -0.00000  -0.07402
  0-1A  ->  9-1A    8.927352   72004.0   138.9    0.00000   0.01383  -0.00000  -0.00000
  0-1A  -> 10-1A    8.984408   72464.1   138.0   -0.00160  -0.00000  -0.00001  -0.26247
  0-1A  -> 11-1A    9.051720   73007.1   137.0    0.00079  -0.00000   0.62667  -0.00001
  0-1A  -> 12-1A    9.350847   75419.7   132.6    0.00001  -0.00000  -0.00001  -0.00000
  0-1A  -> 13-1A    9.449232   76213.2   131.2    0.00055  -0.00000   0.42707  -0.00001
  0-1A  -> 14-1A    9.571608   77200.2   129.5    0.00003   0.00000  -0.19992   0.00000
  0-1A  -> 15-1A    9.940802   80178.0   124.7   -0.00195   0.31380   0.00001  -0.00000
  0-1A  -> 16-1A   10.057963   81123.0   123.3    0.00094  -0.00001  -0.00000  -0.00000
  0-1A  -> 17-1A   10.247746   82653.7   121.0   -0.00000  -0.00228  -0.00000   0.00000
  0-1A  -> 18-1A   10.259531   82748.7   120.8    0.00037  -0.00001  -0.00001  -0.37113
  0-1A  -> 19-1A   10.414695   84000.2   119.0   -0.00012  -0.00000  -0.02079   0.00000
  0-1A  -> 20-1A   10.628980   85728.5   116.6    0.00021   0.00000  -0.00000   0.00000
  0-1A  -> 21-1A   10.986672   88613.5   112.8   -0.00009  -0.00000  -0.00000  -0.00000
  0-1A  -> 22-1A   11.101964   89543.4   111.7    0.00053   0.00000  -0.00000   0.00000
  0-1A  -> 23-1A   11.150353   89933.7   111.2   -0.00007  -0.05761   0.00000   0.00000
  0-1A  -> 24-1A   11.462807   92453.8   108.2   -0.00003  -0.00000  -0.00000  -0.00835
  0-1A  -> 25-1A   11.557788   93219.9   107.3    0.00005   0.00000   0.00000   0.10107
  0-1A  -> 26-1A   11.689438   94281.7   106.1   -0.00000   0.00000   0.00000   0.00000
  0-1A  -> 27-1A   11.823551   95363.4   104.9   -0.00009  -0.00000   0.09534  -0.00000
  0-1A  -> 28-1A   11.871578   95750.7   104.4    0.00003   0.00000  -0.00015  -0.00000
  0-1A  -> 29-1A   11.871789   95752.4   104.4    0.00020   0.00000  -0.06635   0.00000
  0-1A  -> 30-1A   11.894311   95934.1   104.2   -0.00044   0.00000   0.00000   0.10657
  0-1A  -> 31-1A   11.999983   96786.4   103.3    0.00017   0.00000   0.12792  -0.00000
  0-1A  -> 32-1A   12.023233   96973.9   103.1   -0.00000  -0.00328  -0.00000  -0.00000
  0-1A  -> 33-1A   12.392073   99948.8   100.1   -0.00002   0.00000   0.03699  -0.00000
  0-1A  -> 34-1A   12.416695  100147.4    99.9   -0.00000   0.00062   0.00000  -0.00001
  0-1A  -> 35-1A   12.447049  100392.2    99.6    0.00002   0.00000   0.00000   0.04917
  0-1A  -> 36-1A   12.643931  101980.2    98.1   -0.00034   0.00000   0.00001   0.26662
  0-1A  -> 37-1A   12.757208  102893.8    97.2   -0.00119   0.00000  -0.07244  -0.00000
  0-1A  -> 38-1A   12.800293  103241.3    96.9    0.00141   0.00000   0.00000   0.18754
  0-1A  -> 39-1A   12.845867  103608.9    96.5    0.00000   0.00000  -0.00000   0.00000
  0-1A  -> 40-1A   12.913130  104151.4    96.0   -0.00001  -0.01459  -0.00000  -0.00000
  0-1A  -> 41-1A   12.930746  104293.5    95.9    0.00002   0.00000  -0.00000   0.00000
  0-1A  -> 42-1A   12.955122  104490.1    95.7   -0.00001  -0.02315  -0.00000  -0.00000
  0-1A  -> 43-1A   13.232333  106726.0    93.7   -0.00002   0.00000   0.00000   0.01470
  0-1A  -> 44-1A   13.254205  106902.4    93.5    0.00004  -0.00000  -0.00000   0.00000
  0-1A  -> 45-1A   13.342364  107613.4    92.9   -0.00008   0.00000   0.00000   0.04231
  0-1A  -> 46-1A   13.457669  108543.4    92.1    0.00005  -0.00000  -0.00000  -0.00000
  0-1A  -> 47-1A   13.769011  111054.6    90.0   -0.00000   0.00000  -0.00000  -0.00000
  0-1A  -> 48-1A   13.839655  111624.4    89.6   -0.00000  -0.00000   0.00000  -0.00000
  0-1A  -> 49-1A   13.902439  112130.7    89.2   -0.00000  -0.00000   0.00879   0.00000
  0-1A  -> 50-1A   13.990492  112840.9    88.6    0.00001  -0.01571   0.00000  -0.00000

------------------------------------------------------------------------------------------
                     CD SPECTRUM VIA TRANSITION VELOCITY DIPOLE MOMENTS    
------------------------------------------------------------------------------------------
     Transition      Energy     Energy  Wavelength    R        MX        MY        MZ   
                      (eV)      (cm-1)    (nm)   (1e40*cgs)   (au)      (au)      (au)  
------------------------------------------------------------------------------------------
  0-1A  ->  1-1A    3.956338   31910.0   313.4   -0.00117  -0.59994   0.00000   0.00001
  0-1A  ->  2-1A    5.932818   47851.4   209.0   -0.00000   0.00000   0.00000   0.16633
  0-1A  ->  3-1A    6.701603   54052.1   185.0    0.00001  -0.00000  -0.00000   0.00000
  0-1A  ->  4-1A    6.710834   54126.5   184.8    0.00010   0.00000   0.00001   0.25678
  0-1A  ->  5-1A    6.898951   55643.8   179.7   -0.00004   0.05211  -0.00000  -0.00000
  0-1A  ->  6-1A    8.270655   66707.3   149.9   -0.00003  -0.00000  -0.00001  -0.36700
  0-1A  ->  7-1A    8.416436   67883.1   147.3   -0.00001  -0.00000  -0.00000  -0.00000
  0-1A  ->  8-1A    8.715711   70297.0   142.3   -0.00008  -0.00000  -0.00000  -0.07402
  0-1A  ->  9-1A    8.927352   72004.0   138.9   -0.00000   0.01383  -0.00000  -0.00000
  0-1A  -> 10-1A    8.984408   72464.1   138.0   -0.00098  -0.00000  -0.00001  -0.26247
  0-1A  -> 11-1A    9.051720   73007.1   137.0    0.00008  -0.00000   0.62667  -0.00001
  0-1A  -> 12-1A    9.350847   75419.7   132.6   -0.00001  -0.00000  -0.00001  -0.00000
  0-1A  -> 13-1A    9.449232   76213.2   131.2    0.00029  -0.00000   0.42707  -0.00001
  0-1A  -> 14-1A    9.571608   77200.2   129.5    0.00003   0.00000  -0.19992   0.00000
  0-1A  -> 15-1A    9.940802   80178.0   124.7   -0.00113   0.31380   0.00001  -0.00000
  0-1A  -> 16-1A   10.057963   81123.0   123.3   -0.00003  -0.00001  -0.00000  -0.00000
  0-1A  -> 17-1A   10.247746   82653.7   121.0   -0.00000  -0.00228  -0.00000   0.00000
  0-1A  -> 18-1A   10.259531   82748.7   120.8    0.00047  -0.00001  -0.00001  -0.37113
  0-1A  -> 19-1A   10.414695   84000.2   119.0   -0.00011  -0.00000  -0.02079   0.00000
  0-1A  -> 20-1A   10.628980   85728.5   116.6    0.00014   0.00000  -0.00000   0.00000
  0-1A  -> 21-1A   10.986672   88613.5   112.8   -0.00006  -0.00000  -0.00000  -0.00000
  0-1A  -> 22-1A   11.101964   89543.4   111.7    0.00028   0.00000  -0.00000   0.00000
  0-1A  -> 23-1A   11.150353   89933.7   111.2   -0.00003  -0.05761   0.00000   0.00000
  0-1A  -> 24-1A   11.462807   92453.8   108.2   -0.00003  -0.00000  -0.00000  -0.00835
  0-1A  -> 25-1A   11.557788   93219.9   107.3    0.00006   0.00000   0.00000   0.10107
  0-1A  -> 26-1A   11.689438   94281.7   106.1   -0.00000   0.00000   0.00000   0.00000
  0-1A  -> 27-1A   11.823551   95363.4   104.9   -0.00010  -0.00000   0.09534  -0.00000
  0-1A  -> 28-1A   11.871578   95750.7   104.4    0.00002   0.00000  -0.00015  -0.00000
  0-1A  -> 29-1A   11.871789   95752.4   104.4    0.00016   0.00000  -0.06635   0.00000
  0-1A  -> 30-1A   11.894311   95934.1   104.2   -0.00039   0.00000   0.00000   0.10657
  0-1A  -> 31-1A   11.999983   96786.4   103.3    0.00013   0.00000   0.12792  -0.00000
  0-1A  -> 32-1A   12.023233   96973.9   103.1   -0.00000  -0.00328  -0.00000  -0.00000
  0-1A  -> 33-1A   12.392073   99948.8   100.1   -0.00002   0.00000   0.03699  -0.00000
  0-1A  -> 34-1A   12.416695  100147.4    99.9    0.00000   0.00062   0.00000  -0.00001
  0-1A  -> 35-1A   12.447049  100392.2    99.6    0.00001   0.00000   0.00000   0.04917
  0-1A  -> 36-1A   12.643931  101980.2    98.1   -0.00031   0.00000   0.00001   0.26662
  0-1A  -> 37-1A   12.757208  102893.8    97.2   -0.00107   0.00000  -0.07244  -0.00000
  0-1A  -> 38-1A   12.800293  103241.3    96.9    0.00123   0.00000   0.00000   0.18754
  0-1A  -> 39-1A   12.845867  103608.9    96.5    0.00000   0.00000  -0.00000   0.00000
  0-1A  -> 40-1A   12.913130  104151.4    96.0   -0.00003  -0.01459  -0.00000  -0.00000
  0-1A  -> 41-1A   12.930746  104293.5    95.9    0.00005   0.00000  -0.00000   0.00000
  0-1A  -> 42-1A   12.955122  104490.1    95.7   -0.00002  -0.02315  -0.00000  -0.00000
  0-1A  -> 43-1A   13.232333  106726.0    93.7   -0.00002   0.00000   0.00000   0.01470
  0-1A  -> 44-1A   13.254205  106902.4    93.5    0.00004  -0.00000  -0.00000   0.00000
  0-1A  -> 45-1A   13.342364  107613.4    92.9   -0.00008   0.00000   0.00000   0.04231
  0-1A  -> 46-1A   13.457669  108543.4    92.1    0.00003  -0.00000  -0.00000  -0.00000
  0-1A  -> 47-1A   13.769011  111054.6    90.0   -0.00000   0.00000  -0.00000  -0.00000
  0-1A  -> 48-1A   13.839655  111624.4    89.6   -0.00000  -0.00000   0.00000  -0.00000
  0-1A  -> 49-1A   13.902439  112130.7    89.2   -0.00000  -0.00000   0.00879   0.00000
  0-1A  -> 50-1A   13.990492  112840.9    88.6    0.00001  -0.01571   0.00000  -0.00000

Total run time:       36.304 sec

           *** ORCA-CIS/TD-DFT FINISHED WITHOUT ERROR ***
-----------------------
CIS/TD-DFT TOTAL ENERGY
-----------------------

    E(SCF)  =   -114.492457916 Eh
    DE(CIS) =      0.145392738 Eh (Root  1)
    ----------------------------- ---------
    E(tot)  =   -114.347065178 Eh


Maximum memory used throughout the entire CIS-calculation: 513.1 MB
=> NOW LEAVING ORCA_CIS

-------------------------   --------------------
FINAL SINGLE POINT ENERGY      -114.347065177556
-------------------------   --------------------


------------------------------------------------------------------------------
                              ORCA PROPERTY CALCULATIONS
------------------------------------------------------------------------------

GBWName                                 ... H2CO_job2.gbw
Number of atoms                         ...      4
Number of basis functions               ...    266
Max core memory                         ...   1024 MB

Electric properties:
Dipole moment                           ... YES
Quadrupole moment                       ...  NO
Static polarizability (Dipole/Dipole)   ...  NO
Static polarizability (Dipole/Quad.)    ...  NO
Static polarizability (Quad./Quad.)     ...  NO
Static polarizability (Velocity)        ...  NO

Atomic electric properties:
Dipole moment                           ...  NO
Quadrupole moment                       ...  NO
Static polarizability                   ...  NO

Choice of electric origin               ... Center of mass
Position of electric origin             ...     0.323100    -2.023819     0.000007

General magnetic properties:
Magnetizability                         ...  NO

EPR properties:
g-Tensor (aka g-matrix)                 ...  NO
Zero-Field splitting spin-orbit         ...  NO
Zero-field splitting spin-spin          ...  NO
Hyperfine couplings                     ...  NO (   0 nuclei)
Quadrupole couplings                    ...  NO (   0 nuclei)
Contact density                         ...  NO (   0 nuclei)

NMR properties:
Chemical shifts                         ...  NO (   0 nuclei)
Spin-rotation constants                 ...  NO (   0 nuclei)
Spin-spin couplings                     ...  NO (   0 nuclei,    0 pairs)

Choice of magnetic origin               ... GIAO
Position of magnetic origin             ...     0.000000     0.000000     0.000000

Properties with geometric perturbations:
SCF Hessian                             ...  NO
IR spectrum                             ...  NO
VCD spectrum                            ...  NO
X-ray spectroscopy properties:
SCF XES/XAS/RIXS spectra                ...  NO


-------------
DIPOLE MOMENT
-------------

Method             : SCF
Type of density    : Electron Density
Multiplicity       :   1
Irrep              :   0
Energy             :  -114.4924579156957520 Eh
Relativity type    : 
Basis              : AO
                                X                 Y                 Z
Electronic contribution:      1.327618948       0.000000229      -0.000013118
Nuclear contribution   :     -2.221286038       0.000000378       0.000023299
                        -----------------------------------------
Total Dipole Moment    :     -0.893667089       0.000000608       0.000010181
                        -----------------------------------------
Magnitude (a.u.)       :      0.893667090
Magnitude (Debye)      :      2.271521221



--------------------
Rotational spectrum 
--------------------
 
Rotational constants in cm-1:             9.549432             1.319820             1.159558 
Rotational constants in MHz :        286284.778499         39567.212183         34762.686433 

Dipole components along the rotational axes: 
x,y,z [a.u.] :    -0.893667     0.000000    -0.000000 
x,y,z [Debye]:    -2.271521     0.000001    -0.000000 

 

Dipole moment calculation done in   0.0 sec 

Maximum memory used throughout the entire PROP-calculation: 22.5 MB

--------------------------------
SUGGESTED CITATIONS FOR THIS RUN
--------------------------------

Below you find a list of papers that are relevant to this ORCA run
We neither can nor want to force you to cite these papers, but we appreciate if you do
You receive ORCA, which is the product of decades of hard work by many enthusiastic individuals, for free
The only thing we kindly ask in return is that you cite our papers,
We deeply appreciate it, if you show your appreciation for ORCA by not just citing the generic ORCA reference.

Please note that relegating all ORCA citations to the supporting information does *not* help us.
SI sections are not indexed - citations you put there will not count into any citation statistics
But we need these citations in order to attract the funding resources that allow us to do what we are doing

Therefore, if you are a happy ORCA user, please consider citing a few of the papers listed below in the main body of your paper

In addition to the list printed below, the program has created the file H2CO_job2.bibtex that contains the list in bibtex format
You can import this file easily into all common literature databanks and citation aid programs


List of essential papers. We consider these as the minimum necessary citations

  1. Neese,F.
     Software update: the ORCA program system, version 5.0
     WIRES Comput. Molec. Sci., 2022 12(1)e1606
     doi.org/10.1002/wcms.1606

List of papers to cite with high priority. The work reported in these papers was absolutely
necessary for this run to complete.
Our perspective: the developers of density functionals and basis sets usually get cited in chemistry papers
Good! But without the algorithms to do something with them, the functionals or basis sets would not do anything.
Hence, in our opinion, the algorithm design and method developments papers are equally worthy of getting cited

  1. Neese,F.; Olbrich,G.
     Efficient use of the resolution of the identity approximation in time-dependent density functional calculations with hybrid density functionals
     Chem. Phys. Lett., 2002 362 170-178
     doi.org/10.1016/s0009-2614(02)01053-9
  2. Neese,F.
     An improvement of the resolution of the identity approximation for the formation of the Coulomb matrix
     J. Comp. Chem., 2003 24(14)1740-1747
     doi.org/10.1002/jcc.10318
  3. Neese,F.; Wennmohs,F.; Hansen,A.; Becker,U.
     Efficient, approximate and parallel Hartree-Fock and hybrid DFT calculations. A 'chain-of-spheres' algorithm for the Hartree-Fock exchange
     Chem. Phys., 2009 356(1-3)98-109
     doi.org/10.1016/j.chemphys.2008.10.036
  4. Helmich-Paris,B.; de Souza,B.; Neese,F.; Izsák,R.
     An improved chain of spheres for exchange algorithm
     J. Chem. Phys., 2021 155 104109
     doi.org/doi: 10.1063/5.0058766.
  5. Neese,F.
     The SHARK Integral Generation and Digestion System
     J. Comp. Chem., 2022  1-16
     doi.org/10.1002/jcc.26942

List of suggested additional citations. These are papers that are important in the 'surrounding' of 
of this run, or papers that preceded the highly important papers. If you like your results we are grateful for a citation.

  1. Izsak,R.; Neese,F.
     An overlap fitted chain of spheres exchange method
     J. Chem. Phys., 2011 135 144105
     doi.org/10.1063/1.3646921
  2. Izsak,R.; Hansen,A.; Neese,F.
     The resolution of identity and chain of spheres approximations for the LPNO-CCSD singles Fock term
     Molec. Phys., 2012 110 2413-2417
     doi.org/10.1080/00268976.2012.687466
  3. Neese,F.
     The ORCA program system
     WIRES Comput. Molec. Sci., 2012 2(1)73-78
     doi.org/10.1002/wcms.81
  4. Izsak,R.; Neese,F.; Klopper,W.
     Robust fitting techniques in the chain of spheres approximation to the Fock exchange: The role of the complementary space
     J. Chem. Phys., 2013 139 
     doi.org/10.1063/1.4819264
  5. Neese,F.
     Software update: the ORCA program system, version 4.0
     WIRES Comput. Molec. Sci., 2018 8(1)1-6
     doi.org/10.1002/wcms.1327
  6. Neese,F.; Wennmohs,F.; Becker,U.; Riplinger,C.
     The ORCA quantum chemistry program package
     J. Chem. Phys., 2020 152 Art. No. L224108
     doi.org/10.1063/5.0004608

List of optional additional citations

  1. Neese,F.
     Approximate second-order SCF convergence for spin unrestricted wavefunctions
     Chem. Phys. Lett., 2000 325(1-3)93-98
     doi.org/10.1016/s0009-2614(00)00662-x

Timings for individual modules:

Sum of individual times          ...       43.728 sec (=   0.729 min)
SCF iterations                   ...        8.997 sec (=   0.150 min)  20.6 %
Property integrals               ...        0.070 sec (=   0.001 min)   0.2 %
Property calculations            ...        0.041 sec (=   0.001 min)   0.1 %
CIS module                       ...       36.322 sec (=   0.605 min)  83.1 %



                             ****ORCA TERMINATED NORMALLY****
TOTAL RUN TIME: 0 days 0 hours 3 minutes 17 seconds 295 msec
