
                                 *****************
                                 * O   R   C   A *
                                 *****************

                                            #,                                       
                                            ###                                      
                                            ####                                     
                                            #####                                    
                                            ######                                   
                                           ########,                                 
                                     ,,################,,,,,                         
                               ,,#################################,,                 
                          ,,##########################################,,             
                       ,#########################################, ''#####,          
                    ,#############################################,,   '####,        
                  ,##################################################,,,,####,       
                ,###########''''           ''''###############################       
              ,#####''   ,,,,##########,,,,          '''####'''          '####       
            ,##' ,,,,###########################,,,                        '##       
           ' ,,###''''                  '''############,,,                           
         ,,##''                                '''############,,,,        ,,,,,,###''
      ,#''                                            '''#######################'''  
     '                                                          ''''####''''         
             ,#######,   #######,   ,#######,      ##                                
            ,#'     '#,  ##    ##  ,#'     '#,    #''#        ,####,   ,####,        
            ##       ##  ##   ,#'  ##            #'  '#       #'       #'  '#        
            ##       ##  #######   ##           ,######,      #####,   #    #        
            '#,     ,#'  ##    ##  '#,     ,#' ,#      #,     #,   #   #,  ,#        
             '#######'   ##     ##  '#######'  #'      '#     '####' # '####'        



                #########################################################
                #                        -***-                          #
                #          Department of theory and spectroscopy        #
                #                                                       #
                #                      Frank Neese                      #
                #                                                       #
                #     Directorship, Architecture, Infrastructure        #
                #                    SHARK, DRIVERS                     #
                #        Core code/Algorithms in most modules           #
                #                                                       #
                #        Max Planck Institute fuer Kohlenforschung      #
                #                Kaiser Wilhelm Platz 1                 #
                #                 D-45470 Muelheim/Ruhr                 #
                #                      Germany                          #
                #                                                       #
                #                  All rights reserved                  #
                #                        -***-                          #
                #########################################################


                         Program Version 6.0.1  -  RELEASE   -


 With contributions from (in alphabetic order):
[Max-Planck-Institut fuer Kohlenforschung]                               
  Daniel Aravena         : Magnetic Suceptibility                        
  Michael Atanasov       : Ab Initio Ligand Field Theory (pilot matlab implementation)
  Alexander A. Auer      : GIAO ZORA, VPT2 properties, NMR spectrum      
  Ute Becker             : All parallelization in ORCA, NUMFREQ, NUMCALC 
  Giovanni Bistoni       : ED, misc. LED, open-shell LED, HFLD           
  Martin Brehm           : Molecular dynamics                            
  Dmytro Bykov           : pre 5.0 version of the SCF Hessian            
  Marcos Casanova-Páez   : Triplet and SCS-CIS(D). UHF-(DLPNO)-IP/EA/STEOM-CCSD. UHF-CVS-IP/STEOM-CCSD   
  Vijay G. Chilkuri      : MRCI spin determinant printing, contributions to CSF-ICE 
  Pauline Colinet        : FMM embedding                                 
  Dipayan Datta          : RHF DLPNO-CCSD density                        
  Achintya Kumar Dutta   : EOM-CC, STEOM-CC                              
  Nicolas Foglia         : Exact transition moments, OPA infrastructure, MCD improvements    
  Dmitry Ganyushin       : Spin-Orbit,Spin-Spin,Magnetic field MRCI      
  Miquel Garcia-Rates    : C-PCM and meta-GGA Hessian, CCSD/C-PCM, Gaussian charge scheme 
  Tiago L. C. Gouveia    : GS-ROHF, GS-ROCIS                             
  Yang Guo               : DLPNO-NEVPT2, F12-NEVPT2, CIM, IAO-localization        
  Andreas Hansen         : Spin unrestricted coupled pair/coupled cluster methods 
  Ingolf Harden          : AUTO-CI MPn and infrastructure                
  Benjamin Helmich-Paris : MC-RPA, TRAH-(SCF,CASSCF), AVAS, COSX integrals, SCF dyn. polar. 
  Lee Huntington         : MR-EOM, pCC                                   
  Robert Izsak           : Overlap fitted RIJCOSX, COSX-SCS-MP3, EOM     
  Riya Kayal             : Wick's Theorem for AUTO-CI, AUTO-CI UHF-CCSDT 
  Emily Kempfer          : AUTO-CI, RHF CISDT and CCSDT                  
  Christian Kollmar      : KDIIS, OOCD, Brueckner-CCSD(T), CCSD density, CASPT2, CASPT2-K, improved NEVPT2 
  Axel Koslowski         : Symmetry handling                             
  Simone Kossmann        : meta-GGA functionals, TD-DFT gradient, OOMP2, (MP2 Hessian; deprecated post 5.0) 
  Lucas Lang             : DCDCAS                                        
  Marvin Lechner         : AUTO-CI (C++ implementation), FIC-MRCC        
  Spencer Leger          : CASSCF response                               
  Dagmar Lenk            : GEPOL surface, SMD, ORCA-2-JSON               
  Dimitrios Liakos       : Extrapolation schemes; Compound Job, initial MDCI parallelization 
  Dimitrios Manganas     : Further ROCIS development; embedding schemes. LFT, Crystal Embedding 
  Dimitrios Pantazis     : SARC Basis sets                               
  Anastasios Papadopoulos: AUTO-CI, single reference methods and gradients 
  Taras Petrenko         : pre 6.0 DFT Hessian and TD-DFT gradient, (ASA, deprecated), ECA, 1-Electron XAS/XES, NRVS 
  Peter Pinski           : DLPNO-MP2, DLPNO-MP2 Gradient                 
  Christoph Reimann      : Effective Core Potentials                     
  Marius Retegan         : Local ZFS, SOC                                
  Christoph Riplinger    : Optimizer, TS searches, QM/MM, DLPNO-CCSD(T), (RO)-DLPNO pert. Triples 
  Michael Roemelt        : Original ROCIS implementation                 
  Masaaki Saitow         : Open-shell DLPNO-CCSD energy and density      
  Barbara Sandhoefer     : DKH picture change effects                    
  Kantharuban Sivalingam : CASSCF convergence/infrastructure, NEVPT2 and variants, FIC-MRCI 
  Bernardo de Souza      : ESD, SOC TD-DFT                               
  Georgi L. Stoychev     : AutoAux, RI-MP2 NMR, DLPNO-MP2 response, X2C  
  Van Anh Tran           : RI-MP2 g-tensors                              
  Willem Van den Heuvel  : Paramagnetic NMR                              
  Zikuan Wang            : NOTCH, Electric field optimization            
  Frank Wennmohs         : Technical directorship and infrastructure     
  Hang Xu                : AUTO-CI-Response properties                   
                                                                         
[FACCTs GmbH]                                                            
  Markus Bursch, Miquel Garcia-Rates, Christoph Riplinger, Bernardo de Souza, Georgi L. Stoychev 
                                                                 
  APM, Basis sets (HGBS, AHGBS, def-TZVP (Ac-Lr), def2-XVPD (La-Lu)), CI-OPT, improved COSX, DLPNO-Multilevel,           
  DOCKER, DRACO, updates on ESD, GOAT, IRC, LR-CPCM, MBIS, meta-GGA TD-DFT gradient, ML-optimized integration grids, 
  MM, NACMEs, nearIR, NEB, NEB-TS, NL-DFT gradient (VV10), 2- and 3-layer-ONIOM, interface openCOSMO-RS, QMMM,   
  Crystal-QMMM, SF, symmetry and pop. for TD-DFT, r2SCAN hybrids, SOLVATOR                                   
                                                                         
[Other institutions]                                                     
  V. Asgeirsson          : NEB                                           
  Christoph Bannwarth    : sTDA-DFT, sTD-DFT, PBEh-3c, B97-3c, D3        
  Sebastian Ehlert       : rSCAN, r2SCAN, r2SCAN-3c, D4, dhf basis sets  
  Marvin Friede          : D4 for Fr, Ra, Ac-Lr                          
  Lars Goerigk           : TD-DFT with DH, B97 family of functionals     
  Stefan Grimme          : VdW corrections, initial TS optimization, DFT functionals, gCP, sTDA/sTD-DF 
  Waldemar Hujo          : DFT-NL                                        
  H. Jonsson             : NEB                                           
  Holger Kruse           : gCP                                           
  Marcel Mueller         : wB97X-3c, vDZP basis set                      
  Hagen Neugebauer       : wr2SCAN                                       
  Tobias Risthaus        : range-separated hybrid DFT                    
  Lukas Wittmann         : regularized MP2, r2SCAN double-hybrids, wr2SCAN        
                                                                         
We gratefully acknowledge several colleagues who have allowed us to      
interface, adapt or use parts of their codes:                            
  Ed Valeev, F. Pavosevic, A. Kumar             : LibInt (2-el integral package), F12 methods 
  Garnet Chan, S. Sharma, J. Yang, R. Olivares  : DMRG                   
  Ulf Ekstrom                                   : XCFun DFT Library      
  Mihaly Kallay                                 : mrcc  (arbitrary order and MRCC methods)
  Frank Weinhold                                : gennbo (NPA and NBO analysis)           
  Simon Mueller                                 : openCOSMO-RS                            
  Christopher J. Cramer and Donald G. Truhlar   : smd solvation model                     
  S Lehtola, MJT Oliveira, MAL Marques          : LibXC Library                           
  Liviu Ungur et al                             : ANISO software                          


 Your calculation uses the libint2 library for the computation of 2-el integrals
 For citations please refer to: http://libint.valeyev.net

 Your ORCA version has been built with support for libXC version: 6.2.2
 For citations please refer to: https://libxc.gitlab.io

 This ORCA versions uses:
   CBLAS   interface :  Fast vector & matrix operations
   LAPACKE interface :  Fast linear algebra routines
   SCALAPACK package :  Parallel linear algebra routines
   Shared memory     :  Shared parallel matrices
   BLAS/LAPACK       :  OpenBLAS 0.3.27  USE64BITINT DYNAMIC_ARCH NO_AFFINITY Haswell SINGLE_THREADED
        Core in use  :  Haswell
   Copyright (c) 2011-2014, The OpenBLAS Project




***************************************
The coordinates will be read from file: acrolein.xyz
***************************************


================================================================================

----- Orbital basis set information -----
Your calculation utilizes the basis: def2-SVP
   F. Weigend and R. Ahlrichs, Phys. Chem. Chem. Phys. 7, 3297 (2005).

----- AuxJ basis set information -----
Your calculation utilizes the auxiliary basis: SARC/J 
   decontracted def2/J up to Kr:
   F. Weigend, Phys. Chem. Chem. Phys. 8, 1057 (2006)
   and SARC auxiliary basis sets beyond Kr:
   D. A. Pantazis and F. Neese, J. Chem. Theory Comput. 5, 2229 (2009).
   D. A. Pantazis, X. Y. Chen, C. R. Landis and F. Neese, J. Chem. Theory Comput. 4, 908 (2008).
   D. A. Pantazis and F. Neese, Theor. Chem. Acc. 131, 1292 (2012).
   D. A. Pantazis and F. Neese, J. Chem. Theory Comput. 7, 677 (2011).

----- AuxC basis set information -----
Your calculation utilizes the auxiliary basis: def2-SVP/C
  H-La, Hf-Rn : A. Hellweg, C. Hattig, S. Hofener and W. Klopper, Theor. Chem. Acc. 117, 587 (2007).
        Ce-Lu : J. Chmela and M. E. Harding, Mol. Phys. (2018).

================================================================================
                                        WARNINGS
                       Please study these warnings very carefully!
================================================================================


WARNING: In scalar relativistic gradient/hessian runs we need the one-center approximation
  ===> : %rel OneCenter is turned on

WARNING: Requested PictureChange>0 is not available for DKH one-center approximation (OneCenter=true).
         Continueing the run with OneCenter=true and no picture change (PictureChange=0).
         If picture change is important, repeat the calculation with OneCenter=false. 

WARNING: Geometry Optimization
  ===> : Switching off AutoStart
         For restart on a previous wavefunction, please use MOREAD



***************************************
The coordinates will be read from file: acrolein.xyz
***************************************


================================================================================

----- Orbital basis set information -----
Your calculation utilizes the basis: def2-SVP
   F. Weigend and R. Ahlrichs, Phys. Chem. Chem. Phys. 7, 3297 (2005).

----- AuxJ basis set information -----
Your calculation utilizes the auxiliary basis: SARC/J 
   decontracted def2/J up to Kr:
   F. Weigend, Phys. Chem. Chem. Phys. 8, 1057 (2006)
   and SARC auxiliary basis sets beyond Kr:
   D. A. Pantazis and F. Neese, J. Chem. Theory Comput. 5, 2229 (2009).
   D. A. Pantazis, X. Y. Chen, C. R. Landis and F. Neese, J. Chem. Theory Comput. 4, 908 (2008).
   D. A. Pantazis and F. Neese, Theor. Chem. Acc. 131, 1292 (2012).
   D. A. Pantazis and F. Neese, J. Chem. Theory Comput. 7, 677 (2011).

----- AuxC basis set information -----
Your calculation utilizes the auxiliary basis: def2-SVP/C
  H-La, Hf-Rn : A. Hellweg, C. Hattig, S. Hofener and W. Klopper, Theor. Chem. Acc. 117, 587 (2007).
        Ce-Lu : J. Chmela and M. E. Harding, Mol. Phys. (2018).

================================================================================
                                        WARNINGS
                       Please study these warnings very carefully!
================================================================================


WARNING: Requested PictureChange>0 is not available for DKH one-center approximation (OneCenter=true).
         Continueing the run with OneCenter=true and no picture change (PictureChange=0).
         If picture change is important, repeat the calculation with OneCenter=false. 
INFO   : Checking CIS options ...

================================================================================
                                       INPUT FILE
================================================================================
NAME = acrolein.inp
|  1> !def2-SVP PBE0 SARC/J def2-SVP/C Opt
|  2> * xyzfile 0 1 acrolein.xyz
|  3> %scf
|  4> MaxIter 100
|  5> end
|  6> %rel
|  7> method DKH
|  8> order 2
|  9> picturechange 2
| 10> end
| 11> $new_job
| 12> !def2-SVP PBE0 RI-SOMF(1X) SARC/J def2-SVP/C
| 13> %TDDFT
| 14> NROOTS  10
| 15> DOSOC   TRUE
| 16> TDA     TRUE
| 17> TRIPLETS TRUE
| 18> END
| 19> * xyzfile 0 1 acrolein.xyz
| 20> %scf
| 21> MaxIter 100
| 22> end
| 23> %rel
| 24> method DKH
| 25> order 2
| 26> picturechange 2
| 27> SOCType 3
| 28> SOCFlags 1,3,3,0
| 29> SOCMaxCenter 4
| 30> end
| 31> 
| 32>                          ****END OF INPUT****
================================================================================


                 $$$$$$$$$$$$$$$$$$$$$$$$$$$$$$$$$$$$$$$$$$$$$$ 
                 $ THERE ARE  2 JOBS TO BE PROCESSED THIS RUN $
                 $$$$$$$$$$$$$$$$$$$$$$$$$$$$$$$$$$$$$$$$$$$$$$ 




                 $$$$$$$$$$$$$$$$  JOB NUMBER  1 $$$$$$$$$$$$$$


                       *****************************
                       * Geometry Optimization Run *
                       *****************************

Geometry optimization settings:
Update method            Update   .... BFGS
Choice of coordinates    CoordSys .... (2022) Redundant Internals
Initial Hessian          InHess   .... Almloef's Model
Max. no of cycles        MaxIter  .... 50

Convergence Tolerances:
Energy Change            TolE     ....  5.0000e-06 Eh
Max. Gradient            TolMAXG  ....  3.0000e-04 Eh/bohr
RMS Gradient             TolRMSG  ....  1.0000e-04 Eh/bohr
Max. Displacement        TolMAXD  ....  4.0000e-03 bohr
RMS Displacement         TolRMSD  ....  2.0000e-03 bohr
Strict Convergence                .... False

------------------------------------------------------------------------------
                        ORCA OPTIMIZATION COORDINATE SETUP
------------------------------------------------------------------------------

The optimization will be done in redundant internal coordinates (2022)
Making redundant internal coordinates   ...  (2022 redundants) done
Evaluating the initial hessian          ...  (Almloef) done
Evaluating the coordinates              ...  done
Calculating the B-matrix                .... done
Calculating the G-matrix                .... done
Diagonalizing the G-matrix              .... done
The first mode is                       ....    6
The number of degrees of freedom        ....   18

    -----------------------------------------------------------------
                    Redundant Internal Coordinates


    -----------------------------------------------------------------
         Definition                    Initial Value    Approx d2E/dq
    -----------------------------------------------------------------
      1. B(C   1,C   0)                  1.4753         0.456798   
      2. B(H   2,C   0)                  1.0894         0.360887   
      3. B(H   3,C   1)                  1.1002         0.346862   
      4. B(O   4,C   1)                  1.2138         1.068892   
      5. B(C   5,C   0)                  1.3401         0.750390   
      6. B(H   6,C   5)                  1.0875         0.363485   
      7. B(H   7,C   5)                  1.0872         0.363881   
      8. A(H   2,C   0,C   5)          121.4079         0.364696   
      9. A(C   1,C   0,C   5)          121.0386         0.425230   
     10. A(C   1,C   0,H   2)          117.5535         0.335400   
     11. A(C   0,C   1,O   4)          122.9537         0.450264   
     12. A(H   3,C   1,O   4)           77.0939         0.382577   
     13. A(C   0,C   1,H   3)          159.9524         0.333200   
     14. A(C   0,C   5,H   6)          121.5105         0.365144   
     15. A(H   6,C   5,H   7)          117.4041         0.291746   
     16. A(C   0,C   5,H   7)          121.0855         0.365212   
     17. D(O   4,C   1,C   0,C   5)   -179.9997         0.014217   
     18. D(O   4,C   1,C   0,H   2)     -0.0035         0.014217   
     19. D(H   3,C   1,C   0,C   5)      0.0210         0.014217   
     20. D(H   3,C   1,C   0,H   2)   -179.9828         0.014217   
     21. D(H   6,C   5,C   0,H   2)    179.9938         0.040161   
     22. D(H   7,C   5,C   0,C   1)    179.9971         0.040161   
     23. D(H   6,C   5,C   0,C   1)     -0.0101         0.040161   
     24. D(H   7,C   5,C   0,H   2)      0.0010         0.040161   
    -----------------------------------------------------------------

Number of atoms                         .... 8
Number of degrees of freedom            .... 24


         *************************************************************
         *                GEOMETRY OPTIMIZATION CYCLE   1            *
         *************************************************************
---------------------------------
CARTESIAN COORDINATES (ANGSTROEM)
---------------------------------
  C     -3.805900    0.836400   -0.000400
  C     -2.514500    0.123200   -0.000200
  H     -3.780100    1.925500   -0.000400
  H     -1.792100   -0.706600   -0.000200
  O     -1.444100    0.695600   -0.000100
  C     -4.965900    0.165300   -0.000500
  H     -4.993600   -0.921800   -0.000600
  H     -5.918000    0.690100   -0.000600

----------------------------
CARTESIAN COORDINATES (A.U.)
----------------------------
  NO LB      ZA    FRAG     MASS         X           Y           Z
   0 C     6.0000    0    12.011   -7.192109    1.580567   -0.000756
   1 C     6.0000    0    12.011   -4.751716    0.232814   -0.000378
   2 H     1.0000    0     1.008   -7.143354    3.638668   -0.000756
   3 H     1.0000    0     1.008   -3.386578   -1.335280   -0.000378
   4 O     8.0000    0    15.999   -2.728954    1.314493   -0.000189
   5 C     6.0000    0    12.011   -9.384191    0.312372   -0.000945
   6 H     1.0000    0     1.008   -9.436536   -1.741950   -0.001134
   7 H     1.0000    0     1.008  -11.183399    1.304100   -0.001134

--------------------------------
INTERNAL COORDINATES (ANGSTROEM)
--------------------------------
 C      0   0   0     0.000000000000     0.00000000     0.00000000
 C      1   0   0     1.475251924249     0.00000000     0.00000000
 H      1   2   0     1.089405548912   117.55346049     0.00000000
 H      2   1   3     1.100195346291   159.95239391   180.01723347
 O      2   1   3     1.213836039175   122.95370383     0.00000000
 C      1   2   3     1.340140000149   121.03863554   180.00373734
 H      6   1   2     1.087452854150   121.51047905     0.00000000
 H      6   1   2     1.087156594056   121.08547012   179.99708359

---------------------------
INTERNAL COORDINATES (A.U.)
---------------------------
 C      0   0   0     0.000000000000     0.00000000     0.00000000
 C      1   0   0     2.787822115371     0.00000000     0.00000000
 H      1   2   0     2.058678136218   117.55346049     0.00000000
 H      2   1   3     2.079067898304   159.95239391   180.01723347
 O      2   1   3     2.293817685524   122.95370383     0.00000000
 C      1   2   3     2.532497581395   121.03863554   180.00373734
 H      6   1   2     2.054988077895   121.51047905     0.00000000
 H      6   1   2     2.054428227453   121.08547012   179.99708359

---------------------
BASIS SET INFORMATION
---------------------
There are 3 groups of distinct atoms

 Group   1 Type C   : 7s4p1d contracted to 3s2p1d pattern {511/31/1}
 Group   2 Type H   : 4s1p contracted to 2s1p pattern {31/1}
 Group   3 Type O   : 7s4p1d contracted to 3s2p1d pattern {511/31/1}

Atom   0C    basis set group =>   1
Atom   1C    basis set group =>   1
Atom   2H    basis set group =>   2
Atom   3H    basis set group =>   2
Atom   4O    basis set group =>   3
Atom   5C    basis set group =>   1
Atom   6H    basis set group =>   2
Atom   7H    basis set group =>   2
---------------------------------
AUXILIARY/J BASIS SET INFORMATION
---------------------------------
There are 3 groups of distinct atoms

 Group   1 Type C   : 12s5p4d2f1g contracted to 12s5p4d2f1g pattern {111111111111/11111/1111/11/1}
 Group   2 Type H   : 5s2p1d contracted to 5s2p1d pattern {11111/11/1}
 Group   3 Type O   : 12s5p4d2f1g contracted to 12s5p4d2f1g pattern {111111111111/11111/1111/11/1}

Atom   0C    basis set group =>   1
Atom   1C    basis set group =>   1
Atom   2H    basis set group =>   2
Atom   3H    basis set group =>   2
Atom   4O    basis set group =>   3
Atom   5C    basis set group =>   1
Atom   6H    basis set group =>   2
Atom   7H    basis set group =>   2
---------------------------------
AUXILIARY/C BASIS SET INFORMATION
---------------------------------
There are 3 groups of distinct atoms

 Group   1 Type C   : 8s6p5d3f contracted to 6s5p4d1f pattern {311111/21111/2111/3}
 Group   2 Type H   : 4s3p2d contracted to 3s2p1d pattern {211/21/2}
 Group   3 Type O   : 8s6p5d3f contracted to 6s5p4d1f pattern {311111/21111/2111/3}

Atom   0C    basis set group =>   1
Atom   1C    basis set group =>   1
Atom   2H    basis set group =>   2
Atom   3H    basis set group =>   2
Atom   4O    basis set group =>   3
Atom   5C    basis set group =>   1
Atom   6H    basis set group =>   2
Atom   7H    basis set group =>   2
------------------------------------------------------------------------------
                             ORCA STARTUP CALCULATIONS
                           -- RI-GTO INTEGRALS CHOSEN --
------------------------------------------------------------------------------
------------------------------------------------------------------------------
                   ___                                                        
                  /   \      - P O W E R E D   B Y -                         
                 /     \                                                     
                 |  |  |   _    _      __       _____    __    __             
                 |  |  |  | |  | |    /  \     |  _  \  |  |  /  |          
                  \  \/   | |  | |   /    \    | | | |  |  | /  /          
                 / \  \   | |__| |  /  /\  \   | |_| |  |  |/  /          
                |  |  |   |  __  | /  /__\  \  |    /   |      \           
                |  |  |   | |  | | |   __   |  |    \   |  |\   \          
                \     /   | |  | | |  |  |  |  | |\  \  |  | \   \       
                 \___/    |_|  |_| |__|  |__|  |_| \__\ |__|  \__/        
                                                                              
                      - O R C A' S   B I G   F R I E N D -                    
                                      &                                       
                       - I N T E G R A L  F E E D E R -                       
                                                                              
 v1 FN, 2020, v2 2021, v3 2022-2024                                           
------------------------------------------------------------------------------


----------------------
SHARK INTEGRAL PACKAGE
----------------------

Number of atoms                             ...      8
Number of basis functions                   ...     76
Number of shells                            ...     36
Maximum angular momentum                    ...      2
Integral batch strategy                     ... SHARK/LIBINT Hybrid
RI-J (if used) integral strategy            ... SPLIT-RIJ (Revised 2003 algorithm where possible)
Printlevel                                  ...      1
Contraction scheme used                     ... SEGMENTED contraction
Prescreening option                         ... SCHWARTZ
   Thresh                                   ... 2.500e-11
   Tcut                                     ... 2.500e-12
   Tpresel                                  ... 2.500e-12 
Coulomb Range Separation                    ... NOT USED
Exchange Range Separation                   ... NOT USED
Multipole approximations                    ... NOT USED
Finite Nucleus Model                        ... NOT USED
CABS basis                                  ... NOT available
Auxiliary Coulomb fitting basis             ... AVAILABLE
   # of basis functions in Aux-J            ...    344
   # of shells in Aux-J                     ...    128
   Maximum angular momentum in Aux-J        ...      4
Auxiliary J/K fitting basis                 ... NOT available
Auxiliary Correlation fitting basis         ... AVAILABLE
   # of basis functions in Aux-C            ...    248
   # of shells in Aux-C                     ...     88
   Maximum angular momentum in Aux-C        ...      3
Auxiliary 'external' fitting basis          ... NOT available

Checking pre-screening integrals            ... done (  0.0 sec) Dimension = 36
Check shell pair data                       ... done (  0.0 sec)
Shell pair information
Shell pair cut-off parameter TPreSel        ...   2.5e-12
Total number of shell pairs                 ...       666
Shell pairs after pre-screening             ...       653
Total number of primitive shell pairs       ...      2410
Primitive shell pairs kept                  ...      1933
          la=0 lb=0:    205 shell pairs
          la=1 lb=0:    236 shell pairs
          la=1 lb=1:     77 shell pairs
          la=2 lb=0:     78 shell pairs
          la=2 lb=1:     47 shell pairs
          la=2 lb=2:     10 shell pairs

Calculating one electron integrals          ... done (  0.0 sec)
Calculating RI/J V-Matrix + Cholesky decomp.... done (  0.0 sec)
Calculating RI/C V-Matrix + Cholesky decomp.... done (  0.0 sec)
Calculating Nuclear repulsion               ... done (  0.0 sec) ENN=    103.265332307085 Eh

Diagonalization of the overlap matrix:
Smallest eigenvalue                        ... 2.350e-03
Time for diagonalization                   ...    0.002 sec
Threshold for overlap eigenvalues          ... 1.000e-07
Number of eigenvalues below threshold      ... 0
Time for construction of square roots      ...    0.000 sec
Total time needed                          ...    0.003 sec

-------------------
DFT GRID GENERATION
-------------------

General Integration Accuracy     IntAcc      ... 4.388
Radial Grid Type                 RadialGrid  ... OptM3 with GC (2021)
Angular Grid (max. ang.)         AngularGrid ... 4 (Lebedev-302)
Angular grid pruning method      GridPruning ... 4 (adaptive)
Weight generation scheme         WeightScheme... mBecke (2022)
Basis function cutoff            BFCut       ... 1.0000e-11
Integration weight cutoff        WCut        ... 1.0000e-14
Partially contracted basis set               ... off
Rotationally invariant grid construction     ... off
Angular grids for H and He will be reduced by one unit

Total number of grid points                  ...    37407
Total number of batches                      ...      589
Average number of points per batch           ...       63
Average number of grid points per atom       ...     4676

--------------------
COSX GRID GENERATION
--------------------

GRIDX 1
-------
General Integration Accuracy     IntAcc      ... 3.816
Radial Grid Type                 RadialGrid  ... OptM3 with GC (2021)
Angular Grid (max. ang.)         AngularGrid ... 1 (Lebedev-50)
Angular grid pruning method      GridPruning ... 4 (adaptive)
Weight generation scheme         WeightScheme... mBecke (2022)
Basis function cutoff            BFCut       ... 1.0000e-11
Integration weight cutoff        WCut        ... 1.0000e-14
Partially contracted basis set               ... on
Rotationally invariant grid construction     ... off
Angular grids for H and He will be reduced by one unit

Total number of grid points                  ...     4789
Total number of batches                      ...       42
Average number of points per batch           ...      114
Average number of grid points per atom       ...      599
UseSFitting                                  ... on

GRIDX 2
-------
General Integration Accuracy     IntAcc      ... 4.020
Radial Grid Type                 RadialGrid  ... OptM3 with GC (2021)
Angular Grid (max. ang.)         AngularGrid ... 2 (Lebedev-110)
Angular grid pruning method      GridPruning ... 4 (adaptive)
Weight generation scheme         WeightScheme... mBecke (2022)
Basis function cutoff            BFCut       ... 1.0000e-11
Integration weight cutoff        WCut        ... 1.0000e-14
Partially contracted basis set               ... on
Rotationally invariant grid construction     ... off
Angular grids for H and He will be reduced by one unit

Total number of grid points                  ...    10534
Total number of batches                      ...       87
Average number of points per batch           ...      121
Average number of grid points per atom       ...     1317
UseSFitting                                  ... on

GRIDX 3
-------
General Integration Accuracy     IntAcc      ... 4.338
Radial Grid Type                 RadialGrid  ... OptM3 with GC (2021)
Angular Grid (max. ang.)         AngularGrid ... 3 (Lebedev-194)
Angular grid pruning method      GridPruning ... 4 (adaptive)
Weight generation scheme         WeightScheme... mBecke (2022)
Basis function cutoff            BFCut       ... 1.0000e-11
Integration weight cutoff        WCut        ... 1.0000e-14
Partially contracted basis set               ... on
Rotationally invariant grid construction     ... off
Angular grids for H and He will be reduced by one unit

Total number of grid points                  ...    23289
Total number of batches                      ...      185
Average number of points per batch           ...      125
Average number of grid points per atom       ...     2911
UseSFitting                                  ... on
Initializing property integral containers    ... done (  0.0 sec)

SHARK setup successfully completed in   0.6 seconds

Maximum memory used throughout the entire STARTUP-calculation: 16.1 MB
------------------------------------------------------------------------------
                          ORCA RELATIVISTIC HAMILTONIAN
------------------------------------------------------------------------------

Relativistic Method            ... DKH
Order of DKH treatment         ...   2
Treatment of potential         ... V(e,N)
Eps parameter for DKH          ...   0.00000000010000
Nucleus model                  ... Point Nucleus
Speed of light used            ... 137.03598950000000


            ************************************************
            *        DOUGLAS-KROLL-HESS HAMILTONIAN        *
            *   Programmed by FN according to literature   *
            *        procedures. Special thanks to         *
            *       B.A. Hess, M. Reiher and A. Wolf       *
            *     University Erlangen-Nuernberg/Bonn       *
            ************************************************

Uncontracting the basis (first version)        ... done
Number of contracted basis functions           ...   76
Number of uncontracted basis functions         ...  124
Initializing the DKH file                      ... done
One center approximation for DKH is active
Finding unique atoms                      ... 3 atom types
 ATOMIC NUMBER   6
          ... doing integrals
          ... Computing the DKH transformation
          ... Transforming V and pVp to p**2 space
          ... First transformation of V and pVp
          ... Second transformation of Veff
          ... Adding kinetic energy
          ... Back transformation of Veff to r-space
          ... Recontracting the H-matrix
          ... Computing the DKH correction to the H-matrix
          ... adding submatrics to 3 actual atoms
 ATOMIC NUMBER   1
          ... doing integrals
          ... Computing the DKH transformation
          ... Transforming V and pVp to p**2 space
          ... First transformation of V and pVp
          ... Second transformation of Veff
          ... Adding kinetic energy
          ... Back transformation of Veff to r-space
          ... Recontracting the H-matrix
          ... Computing the DKH correction to the H-matrix
          ... adding submatrics to 4 actual atoms
 ATOMIC NUMBER   8
          ... doing integrals
          ... Computing the DKH transformation
          ... Transforming V and pVp to p**2 space
          ... First transformation of V and pVp
          ... Second transformation of Veff
          ... Adding kinetic energy
          ... Back transformation of Veff to r-space
          ... Recontracting the H-matrix
          ... Computing the DKH correction to the H-matrix
          ... adding submatrics to 1 actual atoms
Storing DKH matrices                           ... done
Getting S**(-1/2)                              ... done
Reading the original H-matrix                  ... done
Adding DKH correction to the H-matrix          ... done
Storing the new modified H-matrix              ... done

Maximum memory used throughout the entire REL-calculation: 13.5 MB
-------------------------------------------------------------------------------
                                 ORCA GUESS
                   Start orbitals & Density for SCF / CASSCF
-------------------------------------------------------------------------------

------------
SCF SETTINGS
------------
Hamiltonian:
 Density Functional     Method          .... DFT(GTOs)
 Exchange Functional    Exchange        .... PBE
   PBE kappa parameter   XKappa         ....  0.804000
   PBE mue parameter    XMuePBE         ....  0.219520
 Correlation Functional Correlation     .... PBE
   PBE beta parameter  CBetaPBE         ....  0.066725
 LDA part of GGA corr.  LDAOpt          .... PW91-LDA
 Gradients option       PostSCFGGA      .... off
 Hybrid DFT is turned on
   Fraction HF Exchange ScalHFX         ....  0.250000
   Scaling of DF-GGA-X  ScalDFX         ....  0.750000
   Scaling of DF-GGA-C  ScalDFC         ....  1.000000
   Scaling of DF-LDA-C  ScalLDAC        ....  1.000000
   Perturbative correction              ....  0.000000
   NL short-range parameter             ....  6.900000
 RI-approximation to the Coulomb term is turned on
   Number of AuxJ basis functions       .... 344
   RIJ-COSX (HFX calculated with COS-X)).... on

Relativistic Settings:
 Scalar relativistic method             .... Douglas-Kroll-Hess
 Order of DKH procedure    Order        ....    2
 Mode of DKH-treatment                  .... V=V(e,N)
 Speed of light used       Velit        ....       137.035989
 Cutoff-constant           Eps          ....            1e-10 


General Settings:
 Integral files         IntName         .... acrolein
 Hartree-Fock type      HFTyp           .... RHF
 Total Charge           Charge          ....    0
 Multiplicity           Mult            ....    1
 Number of Electrons    NEL             ....   30
 Basis Dimension        Dim             ....   76
 Nuclear Repulsion      ENuc            ....    103.2653323071 Eh

Convergence Acceleration:
 AO-DIIS                CNVDIIS         .... on
   Start iteration      DIISMaxIt       ....    12
   Startup error        DIISStart       ....  0.200000
   # of expansion vecs  DIISMaxEq       ....     5
   Bias factor          DIISBfac        ....   1.050
   Max. coefficient     DIISMaxC        ....  10.000
 MO-DIIS                CNVKDIIS        .... off
 Trust-Rad. Augm. Hess. CNVTRAH         .... auto
   Auto Start mean grad. ratio tolernc. ....  1.125000
   Auto Start start iteration           ....    50
   Auto Start num. interpolation iter.  ....    10
   Max. Number of Micro iterations      ....    24
   Max. Number of Macro iterations      .... Maxiter - #DIIS iter
   Number of Davidson start vectors     ....     2
   Converg. threshold    (grad. norm)   ....   1.000e-05
   Grad. Scal. Fac. for Micro threshold ....   0.100
   Minimum threshold for Micro iter.    ....   1.000e-02
   NR start threshold (gradient norm)   ....   1.000e-04
   Initial trust radius                 ....   0.400
   Minimum AH scaling param. (alpha)    ....   1.000
   Maximum AH scaling param. (alpha)    .... 1000.000
   Quad. conv. algorithm                .... NR
   White noise on init. David. guess    .... on
   Maximum white noise                  ....   0.010
   Pseudo random numbers                .... off
   Inactive MOs                         .... canonical
   Orbital update algorithm             .... Taylor
   Preconditioner                       .... Diag
   Full preconditioner red. dimension   ....   250
 SOSCF                  CNVSOSCF        .... on
   Start iteration      SOSCFMaxIt      ....   150
   Startup grad/error   SOSCFStart      ....  0.003300
   Hessian update       SOSCFHessUp     .... L-BFGS
 Level Shifting         CNVShift        .... on
   Level shift para.    LevelShift      ....    0.2500
   Turn off err/grad.   ShiftErr        ....    0.0010
 Zerner damping         CNVZerner       .... off
 Static damping         CNVDamp         .... on
   Fraction old density DampFac         ....    0.7000
   Max. Damping (<1)    DampMax         ....    0.9800
   Min. Damping (>=0)   DampMin         ....    0.0000
   Turn off err/grad.   DampErr         ....    0.1000

SCF Procedure:
 Maximum # iterations   MaxIter         ....   100
 SCF integral mode      SCFMode         .... Direct
   Integral package                     .... SHARK and LIBINT hybrid scheme
 Reset frequency        DirectResetFreq ....    20
 Integral Threshold     Thresh          ....  2.500e-11 Eh
 Primitive CutOff       TCut            ....  2.500e-12 Eh

Convergence Tolerance:
 Convergence Check Mode ConvCheckMode   .... Total+1el-Energy
 Convergence forced     ConvForced      .... 0
 Energy Change          TolE            ....  1.000e-08 Eh
 1-El. energy change                    ....  1.000e-05 Eh
 Orbital Gradient       TolG            ....  1.000e-05
 Orbital Rotation angle TolX            ....  1.000e-05
 DIIS Error             TolErr          ....  5.000e-07

------------------------------
INITIAL GUESS: MODEL POTENTIAL
------------------------------
Loading DKH relativistic densities                 ... done
Calculating cut-offs                               ... done
Initializing the effective Hamiltonian             ... done
Setting up the integral package (SHARK)            ... done
Starting the Coulomb interaction                   ... done (   0.0 sec)
Making the grid                                    ... done (   0.1 sec)
Mapping shells                                     ... done
Starting the XC term evaluation                    ... done (   0.0 sec)
  promolecular density results
     # of electrons  =     29.997860838
     EX              =    -24.643999949
     EC              =     -0.968047151
     EX+EC           =    -25.612047100
Transforming the Hamiltonian                       ... done (   0.0 sec)
Diagonalizing the Hamiltonian                      ... done (   0.0 sec)
Back transforming the eigenvectors                 ... done (   0.0 sec)
Now organizing SCF variables                       ... done
                      ------------------
                      INITIAL GUESS DONE (   0.1 sec)
                      ------------------
             **** ENERGY FILE WAS UPDATED (acrolein.en.tmp) ****
Finished Guess after   0.2 sec
Maximum memory used throughout the entire GUESS-calculation: 8.6 MB

-------------------------------------------------------------------------------------------
                                      ORCA LEAN-SCF
                              memory conserving SCF solver
-------------------------------------------------------------------------------------------

----------------------------------------D-I-I-S--------------------------------------------
Iteration    Energy (Eh)           Delta-E    RMSDP     MaxDP     DIISErr   Damp  Time(sec)
-------------------------------------------------------------------------------------------
               ***  Starting incremental Fock matrix formation  ***
    1    -191.4366810312032499     0.00e+00  7.19e-03  1.50e-01  2.42e-01  0.700   0.8
    2    -191.4885223384054029    -5.18e-02  4.68e-03  1.03e-01  9.99e-02  0.700   0.4
                               ***Turning on AO-DIIS***
    3    -191.5074778457151865    -1.90e-02  1.40e-03  1.72e-02  3.36e-02  0.700   0.4
    4    -191.5196708584431349    -1.22e-02  2.12e-03  2.45e-02  1.70e-02  0.000   0.4
    5    -191.5465919764361047    -2.69e-02  5.78e-04  1.19e-02  5.85e-03  0.000   0.4
                              *** Initializing SOSCF ***
---------------------------------------S-O-S-C-F--------------------------------------
Iteration    Energy (Eh)           Delta-E    RMSDP     MaxDP     MaxGrad    Time(sec)
--------------------------------------------------------------------------------------
    6    -191.5467596882922976    -1.68e-04  2.18e-04  5.16e-03  9.75e-04     0.4
               *** Restarting incremental Fock matrix formation ***
    7    -191.5468254707273559    -6.58e-05  1.30e-04  2.61e-03  2.26e-04     0.7
    8    -191.5468265307031857    -1.06e-06  6.83e-05  1.49e-03  1.66e-04     0.7
    9    -191.5468266769281627    -1.46e-07  4.82e-05  1.19e-03  1.54e-04     0.6
   10    -191.5468268543813792    -1.77e-07  9.70e-06  1.30e-04  5.66e-05     0.6
   11    -191.5468268672574368    -1.29e-08  6.96e-06  1.16e-04  3.69e-05     0.6
   12    -191.5468268822665436    -1.50e-08  3.89e-06  4.70e-05  1.57e-05     0.6
   13    -191.5468268846787510    -2.41e-09  2.72e-06  4.68e-05  7.75e-06     0.6
                 **** Energy Check signals convergence ****

               *****************************************************
               *                     SUCCESS                       *
               *           SCF CONVERGED AFTER  13 CYCLES          *
               *****************************************************

Recomputing exchange energy using gridx3       ... done (    1.092 sec)
Old exchange energy                            :     -6.274091455 Eh
New exchange energy                            :     -6.274117916 Eh
Exchange energy change after final integration :     -0.000026461 Eh
Total energy after final integration           :   -191.546853346 Eh
             **** ENERGY FILE WAS UPDATED (acrolein.en.tmp) ****

----------------
TOTAL SCF ENERGY
----------------

Total Energy       :       -191.54685334563368 Eh           -5212.25487 eV

Components:
Nuclear Repulsion  :        103.26533230708503 Eh            2809.99255 eV
Electronic Energy  :       -294.81215919176378 Eh           -8022.24669 eV
One Electron Energy:       -463.49361545912603 Eh          -12612.30247 eV
Two Electron Energy:        168.68145626736225 Eh            4590.05578 eV

Virial components:
Potential Energy   :       -381.65828713024371 Eh          -10385.44998 eV
Kinetic Energy     :        190.11143378461006 Eh            5173.19511 eV
Virial Ratio       :          2.00755041152680

DFT components:
N(Alpha)           :       15.000000229252 electrons
N(Beta)            :       15.000000229252 electrons
N(Total)           :       30.000000458504 electrons
E(X)               :      -18.793795925729 Eh       
E(C)               :       -0.983873688186 Eh       
E(XC)              :      -19.777669613914 Eh       

---------------
SCF CONVERGENCE
---------------

  Last Energy change         ...    2.4122e-09  Tolerance :   1.0000e-08
  Last MAX-Density change    ...    4.6826e-05  Tolerance :   1.0000e-07
  Last RMS-Density change    ...    2.7222e-06  Tolerance :   5.0000e-09
  Last DIIS Error            ...    9.7517e-04  Tolerance :   5.0000e-07
  Last Orbital Gradient      ...    7.7535e-06  Tolerance :   1.0000e-05
  Last Orbital Rotation      ...    1.8606e-05  Tolerance :   1.0000e-05


----------------
ORBITAL ENERGIES
----------------

  NO   OCC          E(Eh)            E(eV) 
   0   2.0000     -19.212039      -522.7862 
   1   2.0000     -10.314519      -280.6723 
   2   2.0000     -10.273889      -279.5667 
   3   2.0000     -10.267392      -279.3899 
   4   2.0000      -1.084054       -29.4986 
   5   2.0000      -0.819261       -22.2932 
   6   2.0000      -0.653266       -17.7763 
   7   2.0000      -0.578947       -15.7539 
   8   2.0000      -0.524799       -14.2805 
   9   2.0000      -0.489091       -13.3088 
  10   2.0000      -0.419271       -11.4090 
  11   2.0000      -0.417414       -11.3584 
  12   2.0000      -0.408451       -11.1145 
  13   2.0000      -0.310147        -8.4395 
  14   2.0000      -0.229919        -6.2564 
  15   0.0000      -0.061558        -1.6751 
  16   0.0000       0.059333         1.6145 
  17   0.0000       0.067902         1.8477 
  18   0.0000       0.101361         2.7582 
  19   0.0000       0.105395         2.8679 
  20   0.0000       0.158171         4.3040 
  21   0.0000       0.243275         6.6199 
  22   0.0000       0.279264         7.5992 
  23   0.0000       0.309759         8.4290 
  24   0.0000       0.366607         9.9759 
  25   0.0000       0.418629        11.3915 
*Only the first 10 virtual orbitals were printed.

                    ********************************
                    * MULLIKEN POPULATION ANALYSIS *
                    ********************************

-----------------------
MULLIKEN ATOMIC CHARGES
-----------------------
   0 C :   -0.070803
   1 C :    0.081465
   2 H :    0.066075
   3 H :    0.103062
   4 O :   -0.284776
   5 C :   -0.038401
   6 H :    0.071245
   7 H :    0.072134
Sum of atomic charges:   -0.0000000

--------------------------------
MULLIKEN REDUCED ORBITAL CHARGES
--------------------------------
  0 C s       :     3.163512  s :     3.163512
      pz      :     0.991262  p :     2.875477
      px      :     0.918442
      py      :     0.965772
      dz2     :     0.002455  d :     0.031815
      dxz     :     0.004585
      dyz     :     0.002355
      dx2y2   :     0.011765
      dxy     :     0.010656

  1 C s       :     3.315248  s :     3.315248
      pz      :     0.755088  p :     2.516198
      px      :     0.778328
      py      :     0.982782
      dz2     :     0.005456  d :     0.087089
      dxz     :     0.017846
      dyz     :     0.004229
      dx2y2   :     0.030240
      dxy     :     0.029318

  2 H s       :     0.910282  s :     0.910282
      pz      :     0.004401  p :     0.023643
      px      :     0.003131
      py      :     0.016111

  3 H s       :     0.851411  s :     0.851411
      pz      :     0.006480  p :     0.045527
      px      :     0.021624
      py      :     0.017423

  4 O s       :     3.803489  s :     3.803489
      pz      :     1.285164  p :     4.462242
      px      :     1.432962
      py      :     1.744116
      dz2     :     0.002049  d :     0.019046
      dxz     :     0.004729
      dyz     :     0.001610
      dx2y2   :     0.005641
      dxy     :     0.005018

  5 C s       :     3.157868  s :     3.157868
      pz      :     0.907899  p :     2.854440
      px      :     0.973151
      py      :     0.973391
      dz2     :     0.001681  d :     0.026093
      dxz     :     0.004375
      dyz     :     0.001356
      dx2y2   :     0.010278
      dxy     :     0.008403

  6 H s       :     0.904384  s :     0.904384
      pz      :     0.004309  p :     0.024371
      px      :     0.004131
      py      :     0.015930

  7 H s       :     0.903656  s :     0.903656
      pz      :     0.004314  p :     0.024210
      px      :     0.012898
      py      :     0.006998



                     *******************************
                     * LOEWDIN POPULATION ANALYSIS *
                     *******************************

----------------------
LOEWDIN ATOMIC CHARGES
----------------------
   0 C :   -0.074474
   1 C :    0.043528
   2 H :    0.044887
   3 H :    0.056456
   4 O :   -0.153591
   5 C :    0.007776
   6 H :    0.037448
   7 H :    0.037969

-------------------------------
LOEWDIN REDUCED ORBITAL CHARGES
-------------------------------
  0 C s       :     2.896910  s :     2.896910
      pz      :     0.964813  p :     3.091422
      px      :     1.064306
      py      :     1.062303
      dz2     :     0.006928  d :     0.086142
      dxz     :     0.009372
      dyz     :     0.003948
      dx2y2   :     0.034055
      dxy     :     0.031839

  1 C s       :     2.935911  s :     2.935911
      pz      :     0.749310  p :     2.829508
      px      :     0.988282
      py      :     1.091916
      dz2     :     0.012818  d :     0.191052
      dxz     :     0.029951
      dyz     :     0.006547
      dx2y2   :     0.070166
      dxy     :     0.071570

  2 H s       :     0.884738  s :     0.884738
      pz      :     0.013688  p :     0.070375
      px      :     0.010202
      py      :     0.046484

  3 H s       :     0.807734  s :     0.807734
      pz      :     0.016748  p :     0.135810
      px      :     0.063018
      py      :     0.056044

  4 O s       :     3.553419  s :     3.553419
      pz      :     1.272018  p :     4.565874
      px      :     1.537517
      py      :     1.756339
      dz2     :     0.004480  d :     0.034298
      dxz     :     0.005575
      dyz     :     0.001751
      dx2y2   :     0.011408
      dxy     :     0.011084

  5 C s       :     2.895884  s :     2.895884
      pz      :     0.889430  p :     3.028102
      px      :     1.071879
      py      :     1.066794
      dz2     :     0.004482  d :     0.068237
      dxz     :     0.008020
      dyz     :     0.002597
      dx2y2   :     0.029402
      dxy     :     0.023737

  6 H s       :     0.892342  s :     0.892342
      pz      :     0.013079  p :     0.070210
      px      :     0.011465
      py      :     0.045666

  7 H s       :     0.892164  s :     0.892164
      pz      :     0.013152  p :     0.069868
      px      :     0.036463
      py      :     0.020253



                      *****************************
                      * MAYER POPULATION ANALYSIS *
                      *****************************

  NA   - Mulliken gross atomic population
  ZA   - Total nuclear charge
  QA   - Mulliken gross atomic charge
  VA   - Mayer's total valence
  BVA  - Mayer's bonded valence
  FA   - Mayer's free valence

  ATOM       NA         ZA         QA         VA         BVA        FA
  0 C      6.0708     6.0000    -0.0708     3.7774     3.7774     0.0000
  1 C      5.9185     6.0000     0.0815     3.8108     3.8108    -0.0000
  2 H      0.9339     1.0000     0.0661     0.9988     0.9988    -0.0000
  3 H      0.8969     1.0000     0.1031     1.0655     1.0655    -0.0000
  4 O      8.2848     8.0000    -0.2848     2.0451     2.0451    -0.0000
  5 C      6.0384     6.0000    -0.0384     3.9125     3.9125     0.0000
  6 H      0.9288     1.0000     0.0712     0.9816     0.9816     0.0000
  7 H      0.9279     1.0000     0.0721     0.9729     0.9729     0.0000

  Mayer bond orders larger than 0.100000
B(  0-C ,  1-C ) :   0.9265 B(  0-C ,  2-H ) :   0.9519 B(  0-C ,  5-C ) :   1.8948 
B(  1-C ,  3-H ) :   1.0020 B(  1-C ,  4-O ) :   1.8613 B(  5-C ,  6-H ) :   0.9621 
B(  5-C ,  7-H ) :   0.9543 

-------
TIMINGS
-------

Total SCF time: 0 days 0 hours 0 min 8 sec 

Total time                  ....       8.401 sec
Sum of individual times     ....       8.367 sec  ( 99.6%)

SCF preparation             ....       0.071 sec  (  0.8%)
Fock matrix formation       ....       8.259 sec  ( 98.3%)
  Startup                   ....       0.001 sec  (  0.0% of F)
  Split-RI-J                ....       0.483 sec  (  5.8% of F)
  Chain of spheres X        ....       5.709 sec  ( 69.1% of F)
  XC integration            ....       2.049 sec  ( 24.8% of F)
    Basis function eval.    ....       0.828 sec  ( 40.4% of XC)
    Density eval.           ....       0.399 sec  ( 19.5% of XC)
    XC-Functional eval.     ....       0.259 sec  ( 12.6% of XC)
    XC-Potential eval.      ....       0.447 sec  ( 21.8% of XC)
Diagonalization             ....       0.000 sec  (  0.0%)
Density matrix formation    ....       0.004 sec  (  0.0%)
Total Energy calculation    ....       0.001 sec  (  0.0%)
Population analysis         ....       0.003 sec  (  0.0%)
Orbital Transformation      ....       0.010 sec  (  0.1%)
Orbital Orthonormalization  ....       0.000 sec  (  0.0%)
DIIS solution               ....       0.013 sec  (  0.2%)
SOSCF solution              ....       0.006 sec  (  0.1%)
Finished LeanSCF after   8.4 sec

Maximum memory used throughout the entire LEANSCF-calculation: 8.7 MB

-------------------------   --------------------
FINAL SINGLE POINT ENERGY      -191.546853345634
-------------------------   --------------------

------------------------------------------------------------------------------
                         ORCA SCF GRADIENT CALCULATION
------------------------------------------------------------------------------

Nuc. rep. gradient        (SHARK) ... done (  0.0 sec)
HCore & Overlap gradient  (SHARK) ... done (  0.0 sec)
Split-RIJ-J gradient      (SHARK) ... done (  0.3 sec)
COSX-gradient                     ... done (  5.4 sec)
XC gradient                       ... done (  1.0 sec)

------------------
CARTESIAN GRADIENT
------------------

   1   C   :    0.006704370    0.026598403   -0.000007955
   2   C   :   -0.020155675    0.013166349    0.000012988
   3   H   :   -0.005978788   -0.004013776   -0.000002420
   4   H   :    0.064152832    0.073097479    0.000005389
   5   O   :   -0.044612063   -0.106033933   -0.000011737
   6   C   :   -0.003770288   -0.005985130    0.000008711
   7   H   :   -0.000613914    0.004621488   -0.000005623
   8   H   :    0.004273526   -0.001450880    0.000000648

Difference to translation invariance:
           :    0.0000000001    0.0000000001    0.0000000000

Difference to rotation invariance:
           :   -0.0000000433    0.0000000258    0.0000924953

Norm of the Cartesian gradient     ...    0.1554615153
RMS gradient                       ...    0.0317334489
MAX gradient                       ...    0.1060339327

-------
TIMINGS
-------

Total SCF gradient time     ....        6.689 sec

Densities                   ....       0.000 sec  (  0.0%)
One electron gradient       ....       0.033 sec  (  0.5%)
RI-J Coulomb gradient       ....       0.264 sec  (  3.9%)
COSX gradient               ....       5.362 sec  ( 80.2%)
XC gradient                 ....       1.030 sec  ( 15.4%)

Maximum memory used throughout the entire SCFGRAD-calculation: 10.8 MB
------------------------------------------------------------------------------
                         ORCA GEOMETRY RELAXATION STEP
------------------------------------------------------------------------------

Reading the OPT-File                    .... done
Getting information on internals        .... done
Copying old internal coords+grads       .... done
Making the new internal coordinates     .... (2022 redundants) done
Validating the new internal coordinates .... (2022 redundants) done
Calculating the B-matrix                .... done
Calculating the G,G- and P matrices     .... done
Transforming gradient to internals      .... done
Projecting the internal gradient        .... done
Number of atoms                         ....   8
Number of internal coordinates          ....  24
Current Energy                          ....  -191.546853346 Eh
Current gradient norm                   ....     0.155461515 Eh/bohr
Maximum allowed component of the step   ....  0.300
Current trust radius                    ....  0.300
Evaluating the initial hessian          ....  (Almloef) done
Projecting the Hessian                  .... done
Forming the augmented Hessian           .... done
Diagonalizing the augmented Hessian     .... done
Last element of RFO vector              ....  0.940241414
Lowest eigenvalues of augmented Hessian:
 -0.061032314  0.014216882  0.014216885  0.027682145  0.040160719
Length of the computed step             ....  0.362150145
Warning: the length of the step is outside the trust region - taking restricted step instead
The input lambda is                     ....     0.013217
   iter:   5  x=   -0.153482  g=    0.332100 f(x)=     0.000001
The output lambda is                    ....    -0.153482 (7 iterations)
The final length of the internal step   ....  0.300000000
Converting the step to Cartesian space:
 Initial RMS(Int)=    0.0612372436
Transforming coordinates:
 Iter   0:  RMS(Cart)=    0.0737640642 RMS(Int)=    0.0609034984
 Iter   5:  RMS(Cart)=    0.0000017316 RMS(Int)=    0.0000015501
done
Storing new coordinates                 .... done

                                .--------------------.
          ----------------------|Geometry convergence|-------------------------
          Item                value                   Tolerance       Converged
          ---------------------------------------------------------------------
          RMS gradient        0.0361755588            0.0001000000      NO
          MAX gradient        0.1222042430            0.0003000000      NO
          RMS step            0.0612372436            0.0020000000      NO
          MAX step            0.2298367544            0.0040000000      NO
          ........................................................
          Max(Bonds)      0.0387      Max(Angles)   13.17
          Max(Dihed)        0.00      Max(Improp)    0.00
          ---------------------------------------------------------------------

The optimization has not yet converged - more geometry cycles are needed


    ---------------------------------------------------------------------------
                         Redundant Internal Coordinates
                            (Angstroem and degrees)

        Definition                    Value    dE/dq     Step     New-Value
    ----------------------------------------------------------------------------
     1. B(C   1,C   0)                1.4753  0.009023 -0.0078    1.4674   
     2. B(H   2,C   0)                1.0894 -0.004154  0.0043    1.0937   
     3. B(H   3,C   1)                1.1002 -0.013007  0.0138    1.1140   
     4. B(O   4,C   1)                1.2138 -0.089344  0.0387    1.2525   
     5. B(C   5,C   0)                1.3401  0.001502 -0.0009    1.3393   
     6. B(H   6,C   5)                1.0875 -0.004607  0.0047    1.0922   
     7. B(H   7,C   5)                1.0872 -0.004441  0.0045    1.0917   
     8. A(H   2,C   0,C   5)          121.41 -0.003081    0.38    121.79   
     9. A(C   1,C   0,C   5)          121.04 -0.005940    0.63    121.67   
    10. A(C   1,C   0,H   2)          117.55  0.009022   -1.01    116.54   
    11. A(C   0,C   1,O   4)          122.95  0.044031   -4.08    118.87   
    12. A(H   3,C   1,O   4)           77.09 -0.122204   13.17     90.26   
    13. A(C   0,C   1,H   3)          159.95  0.078173   -9.09    150.87   
    14. A(C   0,C   5,H   6)          121.51  0.001551   -0.17    121.34   
    15. A(H   6,C   5,H   7)          117.40  0.000043   -0.01    117.40   
    16. A(C   0,C   5,H   7)          121.09 -0.001594    0.18    121.26   
    17. D(O   4,C   1,C   0,C   5)   -180.00 -0.000004    0.00   -180.00   
    18. D(O   4,C   1,C   0,H   2)     -0.00 -0.000006    0.00     -0.00   
    19. D(H   3,C   1,C   0,C   5)      0.02  0.000006   -0.00      0.02   
    20. D(H   3,C   1,C   0,H   2)   -179.98  0.000004   -0.00   -179.98   
    21. D(H   6,C   5,C   0,H   2)    179.99 -0.000005    0.00    180.00   
    22. D(H   7,C   5,C   0,C   1)    180.00 -0.000001    0.00    180.00   
    23. D(H   6,C   5,C   0,C   1)     -0.01 -0.000006    0.00     -0.01   
    24. D(H   7,C   5,C   0,H   2)      0.00  0.000000   -0.00      0.00   
    ----------------------------------------------------------------------------

Geometry step timings:
Preparation and reading OPT file:      0.000 s (13.014 %)
Internal coordinates            :      0.000 s ( 2.348 %)
B/P matrices and projection     :      0.000 s (22.309 %)
Hessian update/contruction      :      0.000 s ( 9.687 %)
Making the step                 :      0.000 s (21.233 %)
Converting the step to Cartesian:      0.000 s ( 4.305 %)
Storing new data                :      0.000 s ( 1.761 %)
Checking convergence            :      0.000 s ( 0.000 %)
Final printing                  :      0.000 s (24.658 %)
Total time                      :      0.001 s

Time for energy+gradient        :     16.462 s
Time for complete geometry iter :     16.501 s

         *************************************************************
         *                GEOMETRY OPTIMIZATION CYCLE   2            *
         *************************************************************
---------------------------------
CARTESIAN COORDINATES (ANGSTROEM)
---------------------------------
  C     -3.789448    0.829974   -0.000398
  C     -2.497348    0.134400   -0.000196
  H     -3.755998    1.923142   -0.000402
  H     -1.897636   -0.804342   -0.000246
  O     -1.444941    0.813538   -0.000071
  C     -4.948820    0.159546   -0.000502
  H     -4.973597   -0.932342   -0.000576
  H     -5.906411    0.683785   -0.000609

----------------------------
CARTESIAN COORDINATES (A.U.)
----------------------------
  NO LB      ZA    FRAG     MASS         X           Y           Z
   0 C     6.0000    0    12.011   -7.161018    1.568424   -0.000752
   1 C     6.0000    0    12.011   -4.719304    0.253978   -0.000371
   2 H     1.0000    0     1.008   -7.097808    3.634211   -0.000760
   3 H     1.0000    0     1.008   -3.586013   -1.519986   -0.000465
   4 O     8.0000    0    15.999   -2.730543    1.537364   -0.000133
   5 C     6.0000    0    12.011   -9.351915    0.301498   -0.000949
   6 H     1.0000    0     1.008   -9.398736   -1.761871   -0.001088
   7 H     1.0000    0     1.008  -11.161500    1.292166   -0.001151

--------------------------------
INTERNAL COORDINATES (ANGSTROEM)
--------------------------------
 C      0   0   0     0.000000000000     0.00000000     0.00000000
 C      1   0   0     1.467428136852     0.00000000     0.00000000
 H      1   2   0     1.093679042699   116.54223777     0.00000000
 H      2   1   3     1.113952321335   150.86721851   180.01570407
 O      2   1   3     1.252513695443   118.87020346     0.00000000
 C      1   2   3     1.339260537049   121.66569655   180.00331397
 H      6   1   2     1.092168672501   121.33935480     0.00000000
 H      6   1   2     1.091699403966   121.26179726   179.99733556

---------------------------
INTERNAL COORDINATES (A.U.)
---------------------------
 C      0   0   0     0.000000000000     0.00000000     0.00000000
 C      1   0   0     2.773037299860     0.00000000     0.00000000
 H      1   2   0     2.066753869110   116.54223777     0.00000000
 H      2   1   3     2.105064813569   150.86721851   180.01570407
 O      2   1   3     2.366907863372   118.87020346     0.00000000
 C      1   2   3     2.530835636991   121.66569655   180.00331397
 H      6   1   2     2.063899683074   121.33935480     0.00000000
 H      6   1   2     2.063012894061   121.26179726   179.99733556

------------------------------------------------------------------------------
                   ___                                                        
                  /   \      - P O W E R E D   B Y -                         
                 /     \                                                     
                 |  |  |   _    _      __       _____    __    __             
                 |  |  |  | |  | |    /  \     |  _  \  |  |  /  |          
                  \  \/   | |  | |   /    \    | | | |  |  | /  /          
                 / \  \   | |__| |  /  /\  \   | |_| |  |  |/  /          
                |  |  |   |  __  | /  /__\  \  |    /   |      \           
                |  |  |   | |  | | |   __   |  |    \   |  |\   \          
                \     /   | |  | | |  |  |  |  | |\  \  |  | \   \       
                 \___/    |_|  |_| |__|  |__|  |_| \__\ |__|  \__/        
                                                                              
                      - O R C A' S   B I G   F R I E N D -                    
                                      &                                       
                       - I N T E G R A L  F E E D E R -                       
                                                                              
 v1 FN, 2020, v2 2021, v3 2022-2024                                           
------------------------------------------------------------------------------


----------------------
SHARK INTEGRAL PACKAGE
----------------------

Number of atoms                             ...      8
Number of basis functions                   ...     76
Number of shells                            ...     36
Maximum angular momentum                    ...      2
Integral batch strategy                     ... SHARK/LIBINT Hybrid
RI-J (if used) integral strategy            ... SPLIT-RIJ (Revised 2003 algorithm where possible)
Printlevel                                  ...      1
Contraction scheme used                     ... SEGMENTED contraction
Prescreening option                         ... SCHWARTZ
   Thresh                                   ... 2.500e-11
   Tcut                                     ... 2.500e-12
   Tpresel                                  ... 2.500e-12 
Coulomb Range Separation                    ... NOT USED
Exchange Range Separation                   ... NOT USED
Multipole approximations                    ... NOT USED
Finite Nucleus Model                        ... NOT USED
CABS basis                                  ... NOT available
Auxiliary Coulomb fitting basis             ... AVAILABLE
   # of basis functions in Aux-J            ...    344
   # of shells in Aux-J                     ...    128
   Maximum angular momentum in Aux-J        ...      4
Auxiliary J/K fitting basis                 ... NOT available
Auxiliary Correlation fitting basis         ... AVAILABLE
   # of basis functions in Aux-C            ...    248
   # of shells in Aux-C                     ...     88
   Maximum angular momentum in Aux-C        ...      3
Auxiliary 'external' fitting basis          ... NOT available

Checking pre-screening integrals            ... done (  0.0 sec) Dimension = 36
Check shell pair data                       ... done (  0.0 sec)
Shell pair information
Shell pair cut-off parameter TPreSel        ...   2.5e-12
Total number of shell pairs                 ...       666
Shell pairs after pre-screening             ...       654
Total number of primitive shell pairs       ...      2410
Primitive shell pairs kept                  ...      1938
          la=0 lb=0:    205 shell pairs
          la=1 lb=0:    237 shell pairs
          la=1 lb=1:     77 shell pairs
          la=2 lb=0:     78 shell pairs
          la=2 lb=1:     47 shell pairs
          la=2 lb=2:     10 shell pairs

Calculating one electron integrals          ... done (  0.0 sec)
Calculating RI/J V-Matrix + Cholesky decomp.... done (  0.0 sec)
Calculating RI/C V-Matrix + Cholesky decomp.... done (  0.0 sec)
Calculating Nuclear repulsion               ... done (  0.0 sec) ENN=    102.397950361248 Eh

Diagonalization of the overlap matrix:
Smallest eigenvalue                        ... 2.357e-03
Time for diagonalization                   ...    0.001 sec
Threshold for overlap eigenvalues          ... 1.000e-07
Number of eigenvalues below threshold      ... 0
Time for construction of square roots      ...    0.000 sec
Total time needed                          ...    0.001 sec

-------------------
DFT GRID GENERATION
-------------------

General Integration Accuracy     IntAcc      ... 4.388
Radial Grid Type                 RadialGrid  ... OptM3 with GC (2021)
Angular Grid (max. ang.)         AngularGrid ... 4 (Lebedev-302)
Angular grid pruning method      GridPruning ... 4 (adaptive)
Weight generation scheme         WeightScheme... mBecke (2022)
Basis function cutoff            BFCut       ... 1.0000e-11
Integration weight cutoff        WCut        ... 1.0000e-14
Partially contracted basis set               ... off
Rotationally invariant grid construction     ... off
Angular grids for H and He will be reduced by one unit

Total number of grid points                  ...    37397
Total number of batches                      ...      588
Average number of points per batch           ...       63
Average number of grid points per atom       ...     4675

--------------------
COSX GRID GENERATION
--------------------

GRIDX 1
-------
General Integration Accuracy     IntAcc      ... 3.816
Radial Grid Type                 RadialGrid  ... OptM3 with GC (2021)
Angular Grid (max. ang.)         AngularGrid ... 1 (Lebedev-50)
Angular grid pruning method      GridPruning ... 4 (adaptive)
Weight generation scheme         WeightScheme... mBecke (2022)
Basis function cutoff            BFCut       ... 1.0000e-11
Integration weight cutoff        WCut        ... 1.0000e-14
Partially contracted basis set               ... on
Rotationally invariant grid construction     ... off
Angular grids for H and He will be reduced by one unit

Total number of grid points                  ...     4798
Total number of batches                      ...       42
Average number of points per batch           ...      114
Average number of grid points per atom       ...      600
UseSFitting                                  ... on

GRIDX 2
-------
General Integration Accuracy     IntAcc      ... 4.020
Radial Grid Type                 RadialGrid  ... OptM3 with GC (2021)
Angular Grid (max. ang.)         AngularGrid ... 2 (Lebedev-110)
Angular grid pruning method      GridPruning ... 4 (adaptive)
Weight generation scheme         WeightScheme... mBecke (2022)
Basis function cutoff            BFCut       ... 1.0000e-11
Integration weight cutoff        WCut        ... 1.0000e-14
Partially contracted basis set               ... on
Rotationally invariant grid construction     ... off
Angular grids for H and He will be reduced by one unit

Total number of grid points                  ...    10543
Total number of batches                      ...       87
Average number of points per batch           ...      121
Average number of grid points per atom       ...     1318
UseSFitting                                  ... on

GRIDX 3
-------
General Integration Accuracy     IntAcc      ... 4.338
Radial Grid Type                 RadialGrid  ... OptM3 with GC (2021)
Angular Grid (max. ang.)         AngularGrid ... 3 (Lebedev-194)
Angular grid pruning method      GridPruning ... 4 (adaptive)
Weight generation scheme         WeightScheme... mBecke (2022)
Basis function cutoff            BFCut       ... 1.0000e-11
Integration weight cutoff        WCut        ... 1.0000e-14
Partially contracted basis set               ... on
Rotationally invariant grid construction     ... off
Angular grids for H and He will be reduced by one unit

Total number of grid points                  ...    23277
Total number of batches                      ...      186
Average number of points per batch           ...      125
Average number of grid points per atom       ...     2910
UseSFitting                                  ... on
Initializing property integral containers    ... done (  0.0 sec)

SHARK setup successfully completed in   0.5 seconds

Maximum memory used throughout the entire STARTUP-calculation: 16.1 MB
------------------------------------------------------------------------------
                          ORCA RELATIVISTIC HAMILTONIAN
------------------------------------------------------------------------------

Relativistic Method            ... DKH
Order of DKH treatment         ...   2
Treatment of potential         ... V(e,N)
Eps parameter for DKH          ...   0.00000000010000
Nucleus model                  ... Point Nucleus
Speed of light used            ... 137.03598950000000


            ************************************************
            *        DOUGLAS-KROLL-HESS HAMILTONIAN        *
            *   Programmed by FN according to literature   *
            *        procedures. Special thanks to         *
            *       B.A. Hess, M. Reiher and A. Wolf       *
            *     University Erlangen-Nuernberg/Bonn       *
            ************************************************

Uncontracting the basis (first version)        ... done
Number of contracted basis functions           ...   76
Number of uncontracted basis functions         ...  124
Initializing the DKH file                      ... done
One center approximation for DKH is active
Finding unique atoms                      ... 3 atom types
 ATOMIC NUMBER   6
          ... doing integrals
          ... Computing the DKH transformation
          ... Transforming V and pVp to p**2 space
          ... First transformation of V and pVp
          ... Second transformation of Veff
          ... Adding kinetic energy
          ... Back transformation of Veff to r-space
          ... Recontracting the H-matrix
          ... Computing the DKH correction to the H-matrix
          ... adding submatrics to 3 actual atoms
 ATOMIC NUMBER   1
          ... doing integrals
          ... Computing the DKH transformation
          ... Transforming V and pVp to p**2 space
          ... First transformation of V and pVp
          ... Second transformation of Veff
          ... Adding kinetic energy
          ... Back transformation of Veff to r-space
          ... Recontracting the H-matrix
          ... Computing the DKH correction to the H-matrix
          ... adding submatrics to 4 actual atoms
 ATOMIC NUMBER   8
          ... doing integrals
          ... Computing the DKH transformation
          ... Transforming V and pVp to p**2 space
          ... First transformation of V and pVp
          ... Second transformation of Veff
          ... Adding kinetic energy
          ... Back transformation of Veff to r-space
          ... Recontracting the H-matrix
          ... Computing the DKH correction to the H-matrix
          ... adding submatrics to 1 actual atoms
Storing DKH matrices                           ... done
Getting S**(-1/2)                              ... done
Reading the original H-matrix                  ... done
Adding DKH correction to the H-matrix          ... done
Storing the new modified H-matrix              ... done

Maximum memory used throughout the entire REL-calculation: 13.5 MB
Occupation numbers will be reassigned to an Aufbau configuration
             **** ENERGY FILE WAS UPDATED (acrolein.en.tmp) ****
Finished Guess after   0.1 sec
Maximum memory used throughout the entire GUESS-calculation: 6.9 MB
----------------------------------------D-I-I-S--------------------------------------------
Iteration    Energy (Eh)           Delta-E    RMSDP     MaxDP     DIISErr   Damp  Time(sec)
-------------------------------------------------------------------------------------------
               ***  Starting incremental Fock matrix formation  ***
    1    -191.5766334463395992     0.00e+00  1.92e-03  3.33e-02  3.54e-02  0.700   0.7
    2    -191.5795663994038591    -2.93e-03  1.61e-03  2.11e-02  2.79e-02  0.700   0.4
                               ***Turning on AO-DIIS***
    3    -191.5818085819627186    -2.24e-03  1.24e-03  1.72e-02  2.11e-02  0.700   0.4
    4    -191.5834333821531459    -1.62e-03  3.25e-03  4.82e-02  1.54e-02  0.000   0.4
                              *** Initializing SOSCF ***
---------------------------------------S-O-S-C-F--------------------------------------
Iteration    Energy (Eh)           Delta-E    RMSDP     MaxDP     MaxGrad    Time(sec)
--------------------------------------------------------------------------------------
    5    -191.5876187786269043    -4.19e-03  3.12e-04  6.14e-03  1.93e-03     0.4
               *** Restarting incremental Fock matrix formation ***
    6    -191.5876394509154466    -2.07e-05  3.50e-04  7.55e-03  6.71e-04     0.7
    7    -191.5876417106190956    -2.26e-06  1.38e-04  2.22e-03  6.53e-04     0.6
    8    -191.5876449354024658    -3.22e-06  9.81e-05  1.70e-03  2.83e-04     0.6
    9    -191.5876457063996554    -7.71e-07  1.33e-05  2.48e-04  6.22e-05     0.6
   10    -191.5876457551819385    -4.88e-08  1.22e-05  2.10e-04  3.71e-05     0.6
   11    -191.5876457867140061    -3.15e-08  2.11e-06  3.03e-05  7.16e-06     0.6
   12    -191.5876457878599695    -1.15e-09  1.03e-06  1.81e-05  9.96e-06     0.5
                 **** Energy Check signals convergence ****

               *****************************************************
[...]
  0-1.0A  -> 18-3.0A    7.120570   57431.3   174.1   0.000000003   0.00000   0.00000   0.00000   0.00003
  0-1.0A  -> 19-3.0A    7.432571   59947.7   166.8   0.000000057   0.00000   0.00013   0.00008   0.00000
  0-1.0A  -> 20-3.0A    7.432571   59947.7   166.8   0.000000010   0.00000   0.00000   0.00000   0.00006
  0-1.0A  -> 21-3.0A    7.432572   59947.7   166.8   0.000000484   0.00000   0.00040   0.00019   0.00000
  0-1.0A  -> 22-1.0A    7.516016   60620.8   165.0   0.000432811   0.00018   0.00001   0.00001   0.01339
  0-1.0A  -> 23-3.0A    7.816678   63045.8   158.6   0.000000000   0.00000   0.00000   0.00000   0.00000
  0-1.0A  -> 24-3.0A    7.816681   63045.8   158.6   0.000000000   0.00000   0.00000   0.00000   0.00000
  0-1.0A  -> 25-3.0A    7.816682   63045.8   158.6   0.000000003   0.00000   0.00000   0.00000   0.00003
  0-1.0A  -> 26-3.0A    7.965454   64245.7   155.7   0.000000001   0.00000   0.00000   0.00000   0.00002
  0-1.0A  -> 27-3.0A    7.965457   64245.8   155.7   0.000000013   0.00000   0.00002   0.00007   0.00000
  0-1.0A  -> 28-3.0A    7.965457   64245.8   155.7   0.000000000   0.00000   0.00000   0.00000   0.00001
  0-1.0A  -> 29-1.0A    8.215486   66262.4   150.9   0.000486372   0.00022   0.00000   0.00000   0.01484
  0-1.0A  -> 30-1.0A    8.538345   68866.4   145.2   0.035032023   0.01649   0.00027   0.12841   0.00001
  0-1.0A  -> 31-3.0A    8.559360   69035.9   144.9   0.000000106   0.00000   0.00000   0.00000   0.00022
  0-1.0A  -> 32-3.0A    8.559365   69035.9   144.9   0.000000000   0.00000   0.00000   0.00000   0.00000
  0-1.0A  -> 33-3.0A    8.559366   69036.0   144.9   0.000001550   0.00000   0.00005   0.00085   0.00000
  0-1.0A  -> 34-1.0A    8.726270   70382.1   142.1   0.007974158   0.00384   0.04069   0.04669   0.00000
  0-1.0A  -> 35-3.0A    8.859130   71453.7   140.0   0.000003796   0.00000   0.00086   0.00106   0.00000
  0-1.0A  -> 36-3.0A    8.859137   71453.8   140.0   0.000000002   0.00000   0.00000   0.00000   0.00003
  0-1.0A  -> 37-3.0A    8.859138   71453.8   140.0   0.000000291   0.00000   0.00034   0.00016   0.00000
  0-1.0A  -> 38-1.0A    8.992410   72528.7   137.9   0.033890947   0.01680   0.07342   0.10681   0.00001
  0-1.0A  -> 39-1.0A    9.260869   74694.0   133.9   0.004519899   0.00231   0.00001   0.00001   0.04804
  0-1.0A  -> 40-1.0A    9.264365   74722.2   133.8   0.006535357   0.00334   0.00001   0.00000   0.05777

----------------------------------------------------------------------------------------------
      SOC CORRECTED CD SPECTRUM VIA TRANSITION ELECTRIC DIPOLE MOMENTS    
----------------------------------------------------------------------------------------------
      Transition         Energy     Energy  Wavelength    R       |MX|      |MY|      |MZ|  
                          (eV)      (cm-1)    (nm)    (1e40*cgs)  (au)      (au)      (au)  
----------------------------------------------------------------------------------------------
  0-1.0A  ->  1-3.0A    3.040154   24520.5   407.8    0.00000   0.00000   0.00000   0.00036
  0-1.0A  ->  2-3.0A    3.040157   24520.5   407.8    0.00000   0.00018   0.00004   0.00000
  0-1.0A  ->  3-3.0A    3.040181   24520.7   407.8   -0.00000   0.00000   0.00000   0.00015
  0-1.0A  ->  4-1.8A    3.645599   29403.7   340.1    0.00113   0.28712   0.10371   0.00005
  0-1.0A  ->  5-3.0A    3.648841   29429.9   339.8    0.00000   0.00000   0.00000   0.00000
  0-1.0A  ->  6-3.0A    3.648841   29429.9   339.8    0.00000   0.00016   0.00009   0.00000
  0-1.0A  ->  7-2.2A    3.650933   29446.8   339.6    0.00069   0.23133   0.08355   0.00004
  0-1.0A  ->  8-3.0A    6.003701   48423.1   206.5   -0.00000   0.00000   0.00000   0.00000
  0-1.0A  ->  9-3.0A    6.003704   48423.1   206.5   -0.00000   0.00078   0.00072   0.00000
  0-1.0A  -> 10-3.0A    6.003706   48423.2   206.5   -0.00000   0.00038   0.00008   0.00000
  0-1.0A  -> 11-3.0A    6.655160   53677.5   186.3    0.00000   0.00000   0.00000   0.00002
  0-1.0A  -> 12-3.0A    6.655164   53677.5   186.3   -0.00000   0.00000   0.00000   0.00025
  0-1.0A  -> 13-3.0A    6.655166   53677.5   186.3    0.00000   0.00003   0.00005   0.00000
  0-1.0A  -> 14-1.0A    6.971533   56229.2   177.8   -0.02530   0.00002   0.00000   0.07874
  0-1.0A  -> 15-1.0A    7.060942   56950.3   175.6    0.01207   0.47255   0.34412   0.00009
  0-1.0A  -> 16-3.0A    7.120568   57431.3   174.1    0.00000   0.00000   0.00000   0.00007
  0-1.0A  -> 17-3.0A    7.120570   57431.3   174.1    0.00000   0.00000   0.00000   0.00009
  0-1.0A  -> 18-3.0A    7.120570   57431.3   174.1    0.00000   0.00200   0.00141   0.00000
  0-1.0A  -> 19-3.0A    7.432571   59947.7   166.8   -0.00000   0.00000   0.00000   0.00070
  0-1.0A  -> 20-3.0A    7.432571   59947.7   166.8   -0.00000   0.00020   0.00099   0.00000
  0-1.0A  -> 21-3.0A    7.432572   59947.7   166.8   -0.00000   0.00000   0.00000   0.00033
  0-1.0A  -> 22-1.0A    7.516016   60620.8   165.0    0.01383   0.35983   0.03777   0.00002
  0-1.0A  -> 23-3.0A    7.816678   63045.8   158.6    0.00000   0.00033   0.00005   0.00000
  0-1.0A  -> 24-3.0A    7.816681   63045.8   158.6   -0.00000   0.00000   0.00000   0.00000
  0-1.0A  -> 25-3.0A    7.816682   63045.8   158.6    0.00000   0.00027   0.00067   0.00000
  0-1.0A  -> 26-3.0A    7.965454   64245.7   155.7   -0.00000   0.00033   0.00007   0.00000
  0-1.0A  -> 27-3.0A    7.965457   64245.8   155.7    0.00000   0.00000   0.00000   0.00006
  0-1.0A  -> 28-3.0A    7.965457   64245.8   155.7    0.00000   0.00006   0.00010   0.00000
  0-1.0A  -> 29-1.0A    8.215486   66262.4   150.9    0.00302   0.14647   0.01583   0.00003
  0-1.0A  -> 30-1.0A    8.538345   68866.4   145.2   -0.00517   0.00002   0.00002   0.12135
  0-1.0A  -> 31-3.0A    8.559360   69035.9   144.9   -0.00000   0.00018   0.00073   0.00000
  0-1.0A  -> 32-3.0A    8.559365   69035.9   144.9    0.00000   0.00014   0.00012   0.00000
  0-1.0A  -> 33-3.0A    8.559366   69036.0   144.9   -0.00000   0.00000   0.00000   0.00091
  0-1.0A  -> 34-1.0A    8.726270   70382.1   142.1    0.00024   0.00001   0.00000   0.01037
  0-1.0A  -> 35-3.0A    8.859130   71453.7   140.0    0.00000   0.00000   0.00000   0.00065
  0-1.0A  -> 36-3.0A    8.859137   71453.8   140.0   -0.00000   0.00093   0.00030   0.00000
  0-1.0A  -> 37-3.0A    8.859138   71453.8   140.0    0.00000   0.00000   0.00000   0.00054
  0-1.0A  -> 38-1.0A    8.992410   72528.7   137.9    0.00147   0.00000   0.00001   0.05340
  0-1.0A  -> 39-1.0A    9.260869   74694.0   133.9   -0.00246   0.14685   0.15994   0.00001
  0-1.0A  -> 40-1.0A    9.264365   74722.2   133.8   -0.00038   0.05821   0.17088   0.00001

----------------------------------------------------------------------------------------------
      SOC CORRECTED CD SPECTRUM VIA TRANSITION VELOCITY DIPOLE MOMENTS    
----------------------------------------------------------------------------------------------
      Transition         Energy     Energy  Wavelength    R       |MX|      |MY|      |MZ|  
                          (eV)      (cm-1)    (nm)    (1e40*cgs)  (au)      (au)      (au)  
----------------------------------------------------------------------------------------------
  0-1.0A  ->  1-3.0A    3.040154   24520.5   407.8    0.00000   0.00000   0.00000   0.00036
  0-1.0A  ->  2-3.0A    3.040157   24520.5   407.8    0.00000   0.00018   0.00004   0.00000
  0-1.0A  ->  3-3.0A    3.040181   24520.7   407.8   -0.00000   0.00000   0.00000   0.00015
  0-1.0A  ->  4-1.8A    3.645599   29403.7   340.1   -0.00366   0.28712   0.10371   0.00005
  0-1.0A  ->  5-3.0A    3.648841   29429.9   339.8    0.00000   0.00000   0.00000   0.00000
  0-1.0A  ->  6-3.0A    3.648841   29429.9   339.8    0.00000   0.00016   0.00009   0.00000
  0-1.0A  ->  7-2.2A    3.650933   29446.8   339.6   -0.00239   0.23133   0.08355   0.00004
  0-1.0A  ->  8-3.0A    6.003701   48423.1   206.5   -0.00000   0.00000   0.00000   0.00000
  0-1.0A  ->  9-3.0A    6.003704   48423.1   206.5    0.00000   0.00078   0.00072   0.00000
  0-1.0A  -> 10-3.0A    6.003706   48423.2   206.5   -0.00000   0.00038   0.00008   0.00000
  0-1.0A  -> 11-3.0A    6.655160   53677.5   186.3   -0.00000   0.00000   0.00000   0.00002
  0-1.0A  -> 12-3.0A    6.655164   53677.5   186.3   -0.00000   0.00000   0.00000   0.00025
  0-1.0A  -> 13-3.0A    6.655166   53677.5   186.3   -0.00000   0.00003   0.00005   0.00000
  0-1.0A  -> 14-1.0A    6.971533   56229.2   177.8   -0.00567   0.00002   0.00000   0.07874
  0-1.0A  -> 15-1.0A    7.060942   56950.3   175.6    0.00311   0.47255   0.34412   0.00009
  0-1.0A  -> 16-3.0A    7.120568   57431.3   174.1    0.00000   0.00000   0.00000   0.00007
  0-1.0A  -> 17-3.0A    7.120570   57431.3   174.1    0.00000   0.00000   0.00000   0.00009
  0-1.0A  -> 18-3.0A    7.120570   57431.3   174.1    0.00000   0.00200   0.00141   0.00000
  0-1.0A  -> 19-3.0A    7.432571   59947.7   166.8   -0.00000   0.00000   0.00000   0.00070
  0-1.0A  -> 20-3.0A    7.432571   59947.7   166.8   -0.00000   0.00020   0.00099   0.00000
  0-1.0A  -> 21-3.0A    7.432572   59947.7   166.8    0.00000   0.00000   0.00000   0.00033
  0-1.0A  -> 22-1.0A    7.516016   60620.8   165.0    0.00604   0.35983   0.03777   0.00002
  0-1.0A  -> 23-3.0A    7.816678   63045.8   158.6    0.00000   0.00033   0.00005   0.00000
  0-1.0A  -> 24-3.0A    7.816681   63045.8   158.6    0.00000   0.00000   0.00000   0.00000
  0-1.0A  -> 25-3.0A    7.816682   63045.8   158.6    0.00000   0.00027   0.00067   0.00000
  0-1.0A  -> 26-3.0A    7.965454   64245.7   155.7   -0.00000   0.00033   0.00007   0.00000
  0-1.0A  -> 27-3.0A    7.965457   64245.8   155.7   -0.00000   0.00000   0.00000   0.00006
  0-1.0A  -> 28-3.0A    7.965457   64245.8   155.7    0.00000   0.00006   0.00010   0.00000
  0-1.0A  -> 29-1.0A    8.215486   66262.4   150.9    0.00188   0.14647   0.01583   0.00003
  0-1.0A  -> 30-1.0A    8.538345   68866.4   145.2   -0.00357   0.00002   0.00002   0.12135
  0-1.0A  -> 31-3.0A    8.559360   69035.9   144.9   -0.00000   0.00018   0.00073   0.00000
  0-1.0A  -> 32-3.0A    8.559365   69035.9   144.9   -0.00000   0.00014   0.00012   0.00000
  0-1.0A  -> 33-3.0A    8.559366   69036.0   144.9   -0.00000   0.00000   0.00000   0.00091
  0-1.0A  -> 34-1.0A    8.726270   70382.1   142.1    0.00043   0.00001   0.00000   0.01037
  0-1.0A  -> 35-3.0A    8.859130   71453.7   140.0    0.00000   0.00000   0.00000   0.00065
  0-1.0A  -> 36-3.0A    8.859137   71453.8   140.0    0.00000   0.00093   0.00030   0.00000
  0-1.0A  -> 37-3.0A    8.859138   71453.8   140.0    0.00000   0.00000   0.00000   0.00054
  0-1.0A  -> 38-1.0A    8.992410   72528.7   137.9    0.00096   0.00000   0.00001   0.05340
  0-1.0A  -> 39-1.0A    9.260869   74694.0   133.9   -0.00145   0.14685   0.15994   0.00001
  0-1.0A  -> 40-1.0A    9.264365   74722.2   133.8   -0.00026   0.05821   0.17088   0.00001

Total run time:        5.244 sec

           *** ORCA-CIS/TD-DFT FINISHED WITHOUT ERROR ***

---------------------------
SOC CIS/TD-DFT TOTAL ENERGY
---------------------------

    E(SCF)        =   -191.634570671 Eh
    E(SOC CIS)    =      0.111723604 Eh (SOC Root  1)
    ----------------------------- ---------
    E(tot)        =   -191.522847066 Eh


Maximum memory used throughout the entire CIS-calculation: 18.9 MB
=> NOW LEAVING ORCA_CIS

-------------------------   --------------------
FINAL SINGLE POINT ENERGY      -191.522847066287
-------------------------   --------------------


------------------------------------------------------------------------------
                              ORCA PROPERTY CALCULATIONS
------------------------------------------------------------------------------

GBWName                                 ... acrolein_job2.gbw
Number of atoms                         ...      8
Number of basis functions               ...     76
Max core memory                         ...   1024 MB

Electric properties:
Dipole moment                           ... YES
Quadrupole moment                       ...  NO
Static polarizability (Dipole/Dipole)   ...  NO
Static polarizability (Dipole/Quad.)    ...  NO
Static polarizability (Quad./Quad.)     ...  NO
Static polarizability (Velocity)        ...  NO

Atomic electric properties:
Dipole moment                           ...  NO
Quadrupole moment                       ...  NO
Static polarizability                   ...  NO

Choice of electric origin               ... Center of mass
Position of electric origin             ...    -5.766160     0.992888    -0.000563

General magnetic properties:
Magnetizability                         ...  NO

EPR properties:
g-Tensor (aka g-matrix)                 ...  NO
Zero-Field splitting spin-orbit         ...  NO
Zero-field splitting spin-spin          ...  NO
Hyperfine couplings                     ...  NO (   0 nuclei)
Quadrupole couplings                    ...  NO (   0 nuclei)
Contact density                         ...  NO (   0 nuclei)

NMR properties:
Chemical shifts                         ...  NO (   0 nuclei)
Spin-rotation constants                 ...  NO (   0 nuclei)
Spin-spin couplings                     ...  NO (   0 nuclei,    0 pairs)

Choice of magnetic origin               ... GIAO
Position of magnetic origin             ...     0.000000     0.000000     0.000000

Properties with geometric perturbations:
SCF Hessian                             ...  NO
IR spectrum                             ...  NO
VCD spectrum                            ...  NO
X-ray spectroscopy properties:
SCF XES/XAS/RIXS spectra                ...  NO


-------------
DIPOLE MOMENT
-------------

Method             : SCF
Type of density    : Electron Density
Multiplicity       :   1
Irrep              :   0
Energy             :  -191.6345706707662941 Eh
Relativity type    : 
Basis              : AO
                                X                 Y                 Z
Electronic contribution:      3.175700559       0.923265933       0.000362147
Nuclear contribution   :     -4.322903533      -1.310626804      -0.000543766
                        -----------------------------------------
Total Dipole Moment    :     -1.147202974      -0.387360871      -0.000181619
                        -----------------------------------------
Magnitude (a.u.)       :      1.210835720
Magnitude (Debye)      :      3.077699812



--------------------
Rotational spectrum 
--------------------
 
Rotational constants in cm-1:             1.594304             0.155137             0.141380 
Rotational constants in MHz :         47796.034378          4650.882433          4238.451949 

Dipole components along the rotational axes: 
x,y,z [a.u.] :    -1.188993     0.228949    -0.000023 
x,y,z [Debye]:    -3.022181     0.581943    -0.000059 

 

Dipole moment calculation done in   0.0 sec 

Maximum memory used throughout the entire PROP-calculation: 5.3 MB

--------------------------------
SUGGESTED CITATIONS FOR THIS RUN
--------------------------------

Below you find a list of papers that are relevant to this ORCA run
We neither can nor want to force you to cite these papers, but we appreciate if you do
You receive ORCA, which is the product of decades of hard work by many enthusiastic individuals, for free
The only thing we kindly ask in return is that you cite our papers,
We deeply appreciate it, if you show your appreciation for ORCA by not just citing the generic ORCA reference.

Please note that relegating all ORCA citations to the supporting information does *not* help us.
SI sections are not indexed - citations you put there will not count into any citation statistics
But we need these citations in order to attract the funding resources that allow us to do what we are doing

Therefore, if you are a happy ORCA user, please consider citing a few of the papers listed below in the main body of your paper

In addition to the list printed below, the program has created the file acrolein_job2.bibtex that contains the list in bibtex format
You can import this file easily into all common literature databanks and citation aid programs


List of essential papers. We consider these as the minimum necessary citations

  1. Neese,F.
     Software update: the ORCA program system, version 5.0
     WIRES Comput. Molec. Sci., 2022 12(1)e1606
     doi.org/10.1002/wcms.1606

List of papers to cite with high priority. The work reported in these papers was absolutely
necessary for this run to complete.
Our perspective: the developers of density functionals and basis sets usually get cited in chemistry papers
Good! But without the algorithms to do something with them, the functionals or basis sets would not do anything.
Hence, in our opinion, the algorithm design and method developments papers are equally worthy of getting cited

  1. Neese,F.; Olbrich,G.
     Efficient use of the resolution of the identity approximation in time-dependent density functional calculations with hybrid density functionals
     Chem. Phys. Lett., 2002 362 170-178
     doi.org/10.1016/s0009-2614(02)01053-9
  2. Neese,F.
     An improvement of the resolution of the identity approximation for the formation of the Coulomb matrix
     J. Comp. Chem., 2003 24(14)1740-1747
     doi.org/10.1002/jcc.10318
  3. Neese,F.; Wennmohs,F.; Hansen,A.; Becker,U.
     Efficient, approximate and parallel Hartree-Fock and hybrid DFT calculations. A 'chain-of-spheres' algorithm for the Hartree-Fock exchange
     Chem. Phys., 2009 356(1-3)98-109
     doi.org/10.1016/j.chemphys.2008.10.036
  4. Helmich-Paris,B.; de Souza,B.; Neese,F.; Izsák,R.
     An improved chain of spheres for exchange algorithm
     J. Chem. Phys., 2021 155 104109
     doi.org/doi: 10.1063/5.0058766.
  5. Neese,F.
     The SHARK Integral Generation and Digestion System
     J. Comp. Chem., 2022  1-16
     doi.org/10.1002/jcc.26942

List of suggested additional citations. These are papers that are important in the 'surrounding' of 
of this run, or papers that preceded the highly important papers. If you like your results we are grateful for a citation.

  1. Izsak,R.; Neese,F.
     An overlap fitted chain of spheres exchange method
     J. Chem. Phys., 2011 135 144105
     doi.org/10.1063/1.3646921
  2. Izsak,R.; Hansen,A.; Neese,F.
     The resolution of identity and chain of spheres approximations for the LPNO-CCSD singles Fock term
     Molec. Phys., 2012 110 2413-2417
     doi.org/10.1080/00268976.2012.687466
  3. Neese,F.
     The ORCA program system
     WIRES Comput. Molec. Sci., 2012 2(1)73-78
     doi.org/10.1002/wcms.81
  4. Izsak,R.; Neese,F.; Klopper,W.
     Robust fitting techniques in the chain of spheres approximation to the Fock exchange: The role of the complementary space
     J. Chem. Phys., 2013 139 
     doi.org/10.1063/1.4819264
  5. Neese,F.
     Software update: the ORCA program system, version 4.0
     WIRES Comput. Molec. Sci., 2018 8(1)1-6
     doi.org/10.1002/wcms.1327
  6. Neese,F.; Wennmohs,F.; Becker,U.; Riplinger,C.
     The ORCA quantum chemistry program package
     J. Chem. Phys., 2020 152 Art. No. L224108
     doi.org/10.1063/5.0004608

List of optional additional citations

  1. Neese,F.
     Approximate second-order SCF convergence for spin unrestricted wavefunctions
     Chem. Phys. Lett., 2000 325(1-3)93-98
     doi.org/10.1016/s0009-2614(00)00662-x

Timings for individual modules:

Sum of individual times          ...       10.134 sec (=   0.169 min)
Startup calculation              ...        0.542 sec (=   0.009 min)   5.3 %
Relativistic integrals           ...        0.483 sec (=   0.008 min)   4.8 %
SCF iterations                   ...        3.228 sec (=   0.054 min)  31.9 %
Property integrals               ...        0.540 sec (=   0.009 min)   5.3 %
Property calculations            ...        0.071 sec (=   0.001 min)   0.7 %
CIS module                       ...        5.271 sec (=   0.088 min)  52.0 %



                             ****ORCA TERMINATED NORMALLY****
TOTAL RUN TIME: 0 days 0 hours 2 minutes 36 seconds 200 msec
