[Molden Format]
[Title]
 Molden file created by orca_2mkl for BaseName=acrolein

[Atoms] AU
C    1   6         -7.0724589253         1.6478339775        -0.0007241533 
C    2   6         -4.5504024412         0.4681302031        -0.0004944100 
H    3   1         -7.1197480117         3.7162680834        -0.0006735414 
H    4   1         -4.5791405384        -1.6536256883        -0.0004565662 
O    5   8         -2.5887426679         1.6247986318        -0.0001027481 
C    6   6         -9.1730748047         0.2433654081        -0.0009921974 
H    7   1         -9.0635643953        -1.8246995950        -0.0010441903 
H    8   1        -11.0597054370         1.0837130457        -0.0011813717 
[GTO]
  1 0
s   5 1.0 
     1238.4016938000         0.8208956682
      186.2900499200         1.4766449896
       42.2511763460         2.1526124058
       11.6765579320         2.1081722461
        3.5930506482         0.8290999933
s   1 1.0 
        0.4024514736         0.3601183351
s   1 1.0 
        0.1309018267         0.1551027052
p   3 1.0 
        9.4680970621         1.3467645142
        2.0103545142         1.0678070931
        0.5477100471         0.5108735714
p   1 1.0 
        0.1526861379         0.1360471976
d   1 1.0 
        0.8000000000         1.9292013661

  2 0
s   5 1.0 
     1238.4016938000         0.8208956682
      186.2900499200         1.4766449896
       42.2511763460         2.1526124058
       11.6765579320         2.1081722461
        3.5930506482         0.8290999933
s   1 1.0 
        0.4024514736         0.3601183351
s   1 1.0 
        0.1309018267         0.1551027052
p   3 1.0 
        9.4680970621         1.3467645142
        2.0103545142         1.0678070931
        0.5477100471         0.5108735714
p   1 1.0 
        0.1526861379         0.1360471976
d   1 1.0 
        0.8000000000         1.9292013661

  3 0
s   3 1.0 
       13.0107010000         0.1634903809
        1.9622572000         0.2773515510
        0.4445379600         0.3157501452
s   1 1.0 
        0.1219496200         0.1470772262
p   1 1.0 
        0.8000000000         1.0784563492

  4 0
s   3 1.0 
       13.0107010000         0.1634903809
        1.9622572000         0.2773515510
        0.4445379600         0.3157501452
s   1 1.0 
        0.1219496200         0.1470772262
p   1 1.0 
        0.8000000000         1.0784563492

  5 0
s   5 1.0 
     2266.1767785000        -1.2615859742
      340.8701019100        -2.2748500410
       77.3631351670        -3.3479623295
       21.4796449400        -3.3299980531
        6.6589433124        -1.3203828288
s   1 1.0 
        0.8097597567         0.6083832301
s   1 1.0 
        0.2553077223         0.2559811911
p   3 1.0 
       17.7215043170         3.2460107647
        3.8635505440         2.5734959178
        1.0480920883         1.1208372892
p   1 1.0 
        0.2764154441         0.2856886381
d   1 1.0 
        1.2000000000         3.9222679946

  6 0
s   5 1.0 
     1238.4016938000         0.8208956682
      186.2900499200         1.4766449896
       42.2511763460         2.1526124058
       11.6765579320         2.1081722461
        3.5930506482         0.8290999933
s   1 1.0 
        0.4024514736         0.3601183351
s   1 1.0 
        0.1309018267         0.1551027052
p   3 1.0 
        9.4680970621         1.3467645142
        2.0103545142         1.0678070931
        0.5477100471         0.5108735714
p   1 1.0 
        0.1526861379         0.1360471976
d   1 1.0 
        0.8000000000         1.9292013661

  7 0
s   3 1.0 
       13.0107010000         0.1634903809
        1.9622572000         0.2773515510
        0.4445379600         0.3157501452
s   1 1.0 
        0.1219496200         0.1470772262
p   1 1.0 
        0.8000000000         1.0784563492

  8 0
s   3 1.0 
       13.0107010000         0.1634903809
        1.9622572000         0.2773515510
        0.4445379600         0.3157501452
s   1 1.0 
        0.1219496200         0.1470772262
p   1 1.0 
        0.8000000000         1.0784563492

[5D]
[7F]
[9G]
[MO]
 Sym=     1a
 Ene= -1.92252360571358E+01
 Spin= Alpha
 Occup= 2.000000
  1       0.000005342930
  2       0.000291076599
  3      -0.005255829750
  4      -0.000086742678
  5       0.000165915632
  6      -0.000000015622
  7      -0.003123751413
  8      -0.002308134229
  9      -0.000000574422
 10       0.000002714188
 11      -0.000000079251
 12       0.000000052560
 13      -0.000529649137
 14      -0.000102577072
 15       0.000181296063
 16       0.002177771120
 17       0.014425121174
 18      -0.000636759612
 19      -0.000659425918
 20      -0.000000109626
 21       0.009265410246
 22       0.009127655571
 23       0.000002032116
 24       0.000423268720
 25      -0.000000308393
 26      -0.000000221252
 27      -0.000746703841
 28      -0.001433533829
 29       0.000440216420
 30       0.001399036362
 31      -0.000055040712
 32       0.000130398008
 33       0.000000009523
 34       0.000520667535
 35       0.000629068344
 36      -0.000944743884
 37      -0.000320827500
 38      -0.000000233317
 39      -0.989183103753
 40       0.040527613439
 41      -0.032263966555
 42      -0.002464103819
 43      -0.001408479872
 44      -0.000000518604
 45       0.006503640385
 46       0.003368814492
 47       0.000001333349
 48      -0.000188632130
 49       0.000000081034
 50       0.000000057505
 51       0.000102300140
 52       0.000223303916
 53       0.000052865393
 54      -0.001061724823
 55       0.000532927110
 56      -0.000288229176
 57       0.000085076262
 58       0.000000000591
 59       0.003131895485
 60      -0.001025783789
 61       0.000000276533
 62      -0.000194422519
 63       0.000000031265
 64       0.000000041648
 65      -0.000093780293
 66       0.000174299159
 67      -0.000592510472
 68       0.000032728309
 69      -0.000086470784
 70       0.000010767824
 71      -0.000000007855
 72       0.000577239821
 73       0.001521155580
 74       0.000065487844
 75      -0.000157512473
 76       0.000000014917
 Sym=     1a
 Ene= -1.03276601444465E+01
 Spin= Alpha
 Occup= 2.000000
  1       0.001586172489
  2      -0.002732015377
  3       0.011102732664
  4      -0.001622182563
  5       0.000845107155
  6      -0.000000145032
  7      -0.001794060465
  8      -0.003295451279
  9      -0.000000297762
 10       0.000934158743
 11      -0.000000211092
 12       0.000000079446
 13      -0.000800283225
 14       0.000950533839
 15       0.988752621995
 16       0.046212171443
 17      -0.020169002604
 18       0.001159795856
 19      -0.000034020436
 20       0.000000444991
 21       0.010368363659
 22       0.006129498023
 23       0.000001389880
 24      -0.002342616470
 25       0.000000692712
 26       0.000000215428
 27       0.000166808269
 28       0.000915269330
 29       0.000222557788
 30       0.000307096828
 31       0.000346626021
 32      -0.000293648780
 33       0.000000029941
 34      -0.002793823566
 35       0.007486276523
 36      -0.000705956095
 37      -0.002482032103
 38      -0.000000048485
 39       0.000224252403
 40       0.000634424432
 41      -0.011492729866
 42       0.000889585226
 43       0.000390917374
 44       0.000000133571
 45       0.005763156148
 46       0.003952378746
 47       0.000001399370
 48       0.000418900327
 49      -0.000000213520
 50      -0.000000108483
 51      -0.000198131535
 52      -0.000414876724
 53       0.000122193796
 54      -0.000864524734
 55      -0.003466136248
 56      -0.000239808501
 57       0.000227319147
 58      -0.000000000979
 59       0.001910115061
 60      -0.003845703806
 61       0.000000032979
 62      -0.000303185730
 63       0.000000050107
 64       0.000000030360
 65      -0.000017195335
 66       0.000075519840
 67      -0.000855074216
 68      -0.001204864775
 69       0.000019243672
 70      -0.000030482438
 71       0.000000000610
 72       0.000829011335
 73       0.001961142838
 74       0.000086426462
 75       0.000066543989
 76       0.000000023978
 Sym=     1a
 Ene= -1.02763735115852E+01
 Spin= Alpha
 Occup= 2.000000
  1      -0.028151935820
  2       0.003342037986
  3      -0.014021372739
  4      -0.002216494118
  5      -0.001250284484
  6      -0.000000279324
  7       0.000234380756
  8       0.000486063009
  9       0.000000069056
 10      -0.000796716695
 11       0.000000178036
 12       0.000000109776
 13       0.000112992158
 14       0.000679661035
 15       0.000129933554
 16       0.000467631641
 17       0.002246879705
 18       0.000115514619
 19      -0.000164826865
 20       0.000000018695
 21       0.000545826091
 22       0.003725825043
 23       0.000000158578
 24       0.000096456448
 25      -0.000000034260
 26       0.000000015559
 27      -0.000180335665
 28      -0.000047175173
 29       0.000200150890
 30       0.001317131698
 31       0.000387555753
 32       0.000465979983
 33       0.000000052553
 34       0.000540617427
 35       0.001438952205
 36       0.000062447437
 37      -0.000029814745
 38      -0.000000014778
 39       0.000038719363
 40       0.000434386110
 41      -0.002396185061
 42      -0.000003187191
 43       0.000015337185
 44      -0.000000019974
 45       0.000551435236
 46      -0.000175896522
 47       0.000000164718
 48      -0.000037720456
 49       0.000000000697
 50       0.000000016607
 51      -0.000052370116
 52       0.000044275421
 53      -0.988346094950
 54      -0.045742133817
 55       0.033582466044
 56       0.000301281110
 57       0.000334753988
 58       0.000000054269
 59       0.002364832013
 60       0.000407454469
 61       0.000000224662
 62       0.002309939743
 63      -0.000000460508
 64      -0.000000113148
 65      -0.000109159840
 66       0.000012006927
 67       0.003614097850
 68      -0.007491433614
 69      -0.000383103315
 70       0.002418847938
 71       0.000000037490
 72       0.004061861010
 73      -0.006780922398
 74       0.002173014848
 75      -0.001235152285
 76       0.000000217898
 Sym=     1a
 Ene= -1.02628523532221E+01
 Spin= Alpha
 Occup= 2.000000
  1      -0.988337947978
  2      -0.045591143143
  3       0.045827494628
  4       0.000430258490
  5      -0.000204937582
  6       0.000000052409
  7       0.000007879671
  8      -0.007449986537
  9      -0.000000213328
 10       0.001897336420
 11      -0.000000311955
 12      -0.000000161344
 13       0.000495250282
 14      -0.000518230393
 15       0.000715781540
 16       0.002910993122
 17      -0.015134851106
 18      -0.001773335208
 19       0.000782225732
 20      -0.000000140144
 21       0.005145605448
 22      -0.000677290755
 23       0.000000424314
 24      -0.000955386086
 25       0.000000206962
 26      -0.000000079369
 27       0.000659962627
 28      -0.001022667696
 29       0.004391673880
 30      -0.006262967561
 31       0.000126059262
 32      -0.002527645847
 33      -0.000000052515
 34       0.000264126938
 35       0.001403129275
 36       0.000150791810
 37      -0.000224345040
 38       0.000000017066
 39      -0.000030725565
 40      -0.000166853006
 41       0.000493640499
 42       0.000015225617
 43       0.000032889686
 44       0.000000011893
 45       0.000028526533
 46       0.000100353243
 47       0.000000028452
 48       0.000123820969
 49      -0.000000033299
 50      -0.000000033575
 51       0.000024210815
 52      -0.000013495336
 53       0.027322950930
 54       0.006072600484
 55      -0.020473457525
 56       0.002080678399
 57       0.001370167043
 58       0.000000266145
 59      -0.006094144008
 60      -0.001237130454
 61      -0.000000698530
 62      -0.001016198946
 63       0.000000233107
 64       0.000000103461
 65       0.000231582999
 66       0.000540617047
 67      -0.000008500017
 68       0.002185514662
 69      -0.000210502296
 70      -0.000577147383
 71      -0.000000040428
 72      -0.000651195576
 73       0.000762809817
 74      -0.000584960473
 75       0.000067418028
 76      -0.000000064376
 Sym=     1a
 Ene= -1.06958486916900E+00
 Spin= Alpha
 Occup= 2.000000
  1       0.025177932727
  2      -0.045870278692
  3      -0.014789608474
  4      -0.026150339532
  5       0.005428138340
  6      -0.000003221558
  7       0.004893974454
  8       0.013295751295
  9       0.000000499242
 10       0.002336887178
 11      -0.000000847988
 12       0.000000239816
 13      -0.003475601537
 14       0.001956665564
 15       0.152272641835
 16      -0.297687599007
 17      -0.034815460693
 18      -0.159618072744
 19      -0.103696328028
 20      -0.000032553205
 21      -0.014761867133
 22      -0.022075080381
 23      -0.000002619378
 24       0.014078892152
 25      -0.000007105293
 26      -0.000004302260
 27      -0.012584671452
 28      -0.020607697083
 29      -0.011411446672
 30      -0.006204584751
 31      -0.001389321375
 32       0.002243312793
 33      -0.000000099845
 34      -0.032907864772
 35      -0.009540452596
 36      -0.000100036184
 37      -0.007100307213
 38       0.000000070038
 39      -0.254789314378
 40      -0.508616817875
 41      -0.252318956767
 42       0.143680395993
 43       0.082335815210
 44       0.000028121813
 45       0.025816104600
 46       0.016014539609
 47       0.000004770688
 48       0.005065179537
 49      -0.000003150950
 50      -0.000002205439
 51      -0.006820314158
 52      -0.011839991888
 53       0.004990068373
 54      -0.008107018074
 55       0.010669819013
 56      -0.005111602216
 57      -0.001710653583
 58      -0.000000732544
 59       0.002809049230
 60       0.003102157845
 61       0.000000507566
 62       0.000472219809
 63      -0.000000189675
 64      -0.000000077324
 65      -0.000757942360
 66      -0.000622412300
 67      -0.002026284566
 68       0.000250075667
 69      -0.000213616440
 70      -0.000442797856
 71      -0.000000051856
 72      -0.001393363236
 73      -0.001206515871
 74      -0.000408921239
 75      -0.000112003550
 76      -0.000000059836
 Sym=     1a
 Ene= -8.23321685312841E-01
 Spin= Alpha
 Occup= 2.000000
  1       0.205518258471
  2      -0.399056423613
  3      -0.128126156038
  4       0.049589176629
  5       0.081389843013
  6       0.000008161078
  7       0.007134025194
  8       0.038201495368
  9       0.000001895400
 10       0.010236261723
 11      -0.000002567692
 12      -0.000000822860
 13      -0.004805628605
 14      -0.004748520419
 15       0.067190594091
 16      -0.135137461800
 17      -0.023303336536
 18       0.138038147069
 19       0.003713878772
 20       0.000017383836
 21       0.026494877832
 22      -0.000839556294
 23       0.000003914174
 24       0.003080628957
 25      -0.000000141693
 26       0.000001117200
 27      -0.003387514812
 28       0.008524885176
 29      -0.094554726921
 30      -0.014979267851
 31       0.001031591570
 32       0.013728122574
 33       0.000000503968
 34      -0.044020285617
 35      -0.006076311494
 36       0.002330164009
 37      -0.005297142824
 38       0.000000321531
 39       0.051780311123
 40       0.108618683186
 41       0.061990013262
 42       0.000995013042
 43      -0.015525422053
 44      -0.000001860280
 45       0.006738528079
 46      -0.001495547800
 47       0.000000470189
 48       0.000685141844
 49      -0.000000240388
 50       0.000000318911
 51      -0.001607259391
 52       0.001090627029
 53       0.181554843697
 54      -0.347683132355
 55      -0.078892081097
 56      -0.098013023161
 57      -0.053341016408
 58      -0.000011845123
 59      -0.006655156689
 60      -0.013092240656
 61      -0.000000967175
 62       0.007397479697
 63      -0.000002229313
 64      -0.000001193802
 65      -0.004840890981
 66      -0.009059928067
 67      -0.094574514423
 68      -0.012826075347
 69      -0.001351697273
 70      -0.013776334217
 71      -0.000000556636
 72      -0.083923451316
 73      -0.006766678513
 74      -0.012510920541
 75       0.003958545125
 76      -0.000001270702
 Sym=     1a
 Ene= -6.63201422071593E-01
 Spin= Alpha
 Occup= 2.000000
  1      -0.073565339664
  2       0.155087083731
  3       0.067413907202
  4       0.227093923096
  5       0.003878905150
  6       0.000024002154
  7       0.057231814928
  8      -0.018177350476
  9       0.000005681576
 10      -0.001751956689
 11      -0.000000322267
 12      -0.000001577777
 13      -0.000889629967
 14      -0.015221642090
 15      -0.145772707626
 16       0.315096176375
 17       0.088894660889
 18      -0.178826076435
 19      -0.013670044116
 20      -0.000021783722
 21      -0.046461424283
 22       0.000447008280
 23      -0.000007189497
 24      -0.002440135148
 25      -0.000000847321
 26      -0.000001292931
 27      -0.003495391188
 28      -0.011182219200
 29       0.058878047138
 30       0.013072221880
 31       0.004480071175
 32      -0.005073152844
 33       0.000000315575
 34       0.118914338524
 35       0.022933956323
 36      -0.001912738006
 37       0.010923890644
 38      -0.000000374778
 39      -0.086143800136
 40      -0.181741246232
 41      -0.145228879485
 42      -0.061003382749
 43      -0.004382442040
 44      -0.000007711134
 45      -0.033537599715
 46      -0.008571008800
 47      -0.000004399167
 48      -0.003281167670
 49       0.000001411946
 50       0.000000220497
 51       0.003662068315
 52       0.001788351475
 53       0.170943683008
 54      -0.346410300696
 55      -0.148424179039
 56       0.069597103659
 57      -0.002277058694
 58       0.000007717747
 59       0.016380618268
 60       0.005511757764
 61       0.000001965414
 62       0.002404644833
 63      -0.000000096157
 64      -0.000000079188
 65       0.003572861764
 66       0.001351893204
 67      -0.131948254003
 68      -0.017770250353
 69       0.003578827567
 70      -0.013840475890
 71      -0.000000029111
 72      -0.172507793309
 73      -0.025718807336
 74      -0.014593672179
 75       0.007895152576
 76      -0.000001420872
 Sym=     1a
 Ene= -5.86676619233388E-01
 Spin= Alpha
 Occup= 2.000000
  1      -0.118178003668
  2       0.246726432908
  3       0.115179732589
  4      -0.039299589342
  5       0.184259357392
  6       0.000000131369
  7      -0.001212856528
  8       0.052671675091
  9       0.000000562247
 10      -0.000638398097
 11       0.000000351389
 12       0.000000410729
 13       0.002174666174
 14       0.002994486464
 15       0.109824821817
 16      -0.235846891695
 17      -0.097066003732
 18      -0.016752365252
 19       0.219981119517
 20      -0.000000496344
 21       0.025044768452
 22       0.081236433040
 23       0.000005533865
 24       0.000136294237
 25      -0.000000511461
 26       0.000000757855
 27      -0.002533390597
 28      -0.001929989716
 29       0.220927316938
 30       0.043842580168
 31      -0.000221237146
 32      -0.016872972439
 33      -0.000000487359
 34      -0.226994879758
 35      -0.046037453797
 36       0.000920277776
 37      -0.016312289654
 38       0.000000424489
 39       0.049111614921
 40       0.106174323911
 41       0.073338372768
 42       0.009584787741
 43       0.121586920245
 44       0.000004322074
 45       0.009160920238
 46       0.068201182478
 47       0.000003423546
 48       0.002401223626
 49       0.000000038342
 50      -0.000001463188
 51       0.005224015446
 52      -0.007221572450
 53       0.055825003440
 54      -0.113623252539
 55      -0.050867382431
 56       0.045772266510
 57       0.158012527835
 58       0.000009259204
 59       0.003290914041
 60       0.062000347426
 61       0.000001884588
 62       0.000482567472
 63      -0.000000009186
 64       0.000000876542
 65      -0.001067044697
 66       0.008363952309
 67      -0.153102993524
 68      -0.028891239936
 69       0.000572253468
 70      -0.009961776824
 71      -0.000000275859
 72      -0.042301892942
 73      -0.018376470046
 74      -0.001781348190
 75       0.005462355548
 76      -0.000000050949
 Sym=     1a
 Ene= -4.95883033931539E-01
 Spin= Alpha
 Occup= 2.000000
  1      -0.030415305020
  2       0.058900228976
  3       0.039944135414
  4      -0.281088072687
  5       0.024760255419
  6      -0.000026917269
  7      -0.118049425793
  8       0.004568895582
  9      -0.000011859641
 10       0.001067428885
 11      -0.000000139259
 12       0.000000011270
 13      -0.002139107921
 14       0.002400350479
 15       0.005356662330
 16      -0.016475342036
 17       0.030639135828
 18       0.154938333055
 19      -0.289407418452
 20       0.000017956064
 21       0.062101862032
 22      -0.087773717560
 23       0.000008794820
 24       0.000510132601
 25       0.000001533477
 26      -0.000001537968
 27       0.007711793091
 28      -0.001872740983
 29       0.054045234222
 30       0.011599290856
 31      -0.006638364444
 32      -0.004343571373
 33      -0.000000760622
 34       0.184127627270
 35       0.049188012616
 36       0.002681637360
 37       0.010600199809
 38       0.000000007616
 39       0.008022335061
 40       0.018632177624
 41       0.005207168540
 42       0.134352867773
 43      -0.180646405943
 44       0.000018379062
 45       0.077337369416
 46      -0.101357715835
 47       0.000010879946
 48       0.000756002782
 49      -0.000002479310
 50       0.000001503400
 51      -0.013611527705
 52       0.006370085704
 53       0.019641205420
 54      -0.042071076793
 55      -0.075404885193
 56       0.125377983227
 57       0.277981116324
 58       0.000023130765
 59       0.039887927345
 60       0.084099806654
 61       0.000007595776
 62       0.000006232525
 63       0.000000633868
 64       0.000000978242
 65       0.002480794286
 66       0.009297893147
 67      -0.222867523385
 68      -0.061335129226
 69       0.004434672218
 70      -0.011055645466
 71       0.000000179351
 72      -0.025739303709
 73      -0.001310442577
 74       0.002147109859
 75       0.008072118717
 76       0.000000485013
 Sym=     1a
 Ene= -4.91201099189620E-01
 Spin= Alpha
 Occup= 2.000000
  1       0.030625462534
  2      -0.068208135031
  3       0.002555785625
  4       0.066670193461
  5       0.236596001422
  6       0.000013712489
  7      -0.016959321648
  8       0.095288070912
  9       0.000000903733
 10      -0.000218269531
 11       0.000000612027
 12      -0.000000831625
 13       0.006712739772
 14      -0.005648151157
 15      -0.074057716897
 16       0.179517207078
 17       0.060740818671
 18       0.151364637848
 19       0.039581742706
 20       0.000020180387
 21       0.014763359329
 22       0.012639528489
 23      -0.000000542519
 24      -0.001619148290
 25       0.000000076800
 26       0.000000405471
 27      -0.005647931980
 28       0.000640965693
 29       0.136103771831
 30       0.018018693458
 31       0.002125403514
 32      -0.006135942808
 33       0.000000026371
 34       0.048972533603
 35       0.016822111531
 36       0.004045158963
 37       0.003632116435
 38       0.000000404056
 39      -0.092752730832
 40      -0.190215834118
 41      -0.244934539918
 42      -0.241037089717
 43      -0.156056112030
 44      -0.000052341696
 45      -0.123597369122
 46      -0.081380632861
 47      -0.000026793591
 48      -0.007815290141
 49       0.000003845855
 50       0.000002349844
 51       0.004079046313
 52       0.010180596687
 53      -0.009518504251
 54       0.018898786032
 55       0.004184675719
 56      -0.322725427174
 57       0.077918372692
 58      -0.000033352022
 59      -0.119186550598
 60       0.021330497213
 61      -0.000012141225
 62       0.000099719713
 63      -0.000000411837
 64      -0.000000833116
 65      -0.001720615861
 66      -0.007825012344
 67      -0.057007004530
 68      -0.017488675542
 69      -0.008014114249
 70      -0.002894947348
 71      -0.000000973480
 72       0.260276522867
 73       0.078902861877
 74       0.010778218590
 75      -0.005738395091
 76       0.000001026159
 Sym=     1a
 Ene= -4.37333729894541E-01
 Spin= Alpha
 Occup= 2.000000
  1      -0.005675439300
  2       0.011978154686
  3      -0.006512886954
  4      -0.171560945846
  5      -0.147011347679
  6      -0.000029795084
  7      -0.006202484287
  8      -0.013293722407
  9      -0.000003881173
 10       0.000625149580
 11       0.000000323054
 12       0.000001498044
 13       0.004673805055
 14       0.012593068984
 15      -0.013847235085
 16       0.043904530999
 17      -0.091649990832
 18       0.249455414099
 19       0.207783449982
 20       0.000017597588
 21       0.022275475434
 22      -0.001553140238
 23      -0.000011841105
 24      -0.003772438463
 25       0.000002103120
 26       0.000001729919
 27       0.011966766234
 28       0.017952323682
 29      -0.120293391737
 30      -0.066491406340
 31      -0.004259184127
 32       0.004601688911
 33      -0.000000576874
 34      -0.158635763446
 35      -0.075650332291
 36       0.005287000690
 37      -0.006959495273
 38       0.000000695390
 39      -0.075642737231
 40      -0.154096464133
 41      -0.194565767568
 42      -0.379834150483
 43      -0.189095149500
 44      -0.000106848596
 45      -0.211836909149
 46      -0.100310109611
 47      -0.000061680539
 48      -0.008731335693
 49       0.000006641474
 50       0.000003287963
 51       0.009395310834
 52       0.011485938429
 53      -0.022844453441
 54       0.058965460836
 55       0.059524694618
 56       0.251678714100
 57       0.030593099363
 58       0.000025430292
 59       0.089146178451
 60       0.024699750031
 61       0.000009302242
 62       0.001091734597
 63      -0.000000296289
 64       0.000000695393
 65       0.000182614784
 66       0.007707317633
 67       0.004235317915
 68      -0.006335685980
 69       0.005829509848
 70       0.001703584053
 71       0.000000563325
 72      -0.163549918157
 73      -0.073264041322
 74      -0.004407820940
 75       0.005307780027
 76      -0.000000428519
 Sym=     1a
 Ene= -4.20858039627358E-01
 Spin= Alpha
 Occup= 2.000000
  1      -0.000000286292
  2      -0.000000005196
  3      -0.000001257735
  4      -0.000027294563
  5      -0.000010717487
  6       0.177175978690
  7      -0.000010310750
  8       0.000000756643
  9       0.090471418359
 10       0.000000957901
 11       0.007112785924
 12      -0.007569721775
 13      -0.000000718907
 14       0.000001341530
 15       0.000004518912
 16      -0.000009073469
 17      -0.000012494872
 18      -0.000034626288
 19       0.000007110288
 20       0.374151888877
 21      -0.000030166778
 22      -0.000005703249
 23       0.204133357479
 24       0.000007739807
 25       0.019033731170
 26       0.019172252264
 27      -0.000002535775
 28      -0.000002631901
 29      -0.000005577271
 30      -0.000005013111
 31      -0.000000725494
 32       0.000000117802
 33       0.004884635720
 34      -0.000009732712
 35      -0.000006613854
 36      -0.000000653707
 37      -0.000000228837
 38       0.008022783358
 39      -0.000005613024
 40      -0.000011470191
 41      -0.000016959376
 42      -0.000108168948
 43      -0.000031084694
 44       0.434209807974
 45      -0.000064631996
 46      -0.000017421844
 47       0.268444922691
 48      -0.000008379455
 49      -0.022011869813
 50      -0.012496228556
 51       0.000004210762
 52       0.000004061763
 53      -0.000001540251
 54       0.000004336854
 55       0.000004164838
 56       0.000001968560
 57      -0.000004048568
 58       0.098043301423
 59      -0.000001839132
 60      -0.000001267708
 61       0.049222683619
 62       0.000001678678
 63       0.006911672112
 64       0.003521139542
 65      -0.000000926505
 66      -0.000000259306
 67       0.000002911865
 68       0.000000387708
 69      -0.000000045633
 70       0.000000062111
 71       0.003139773628
 72      -0.000008913177
 73      -0.000005158484
 74      -0.000000517233
 75       0.000000208550
 76       0.002595738676
 Sym=     1a
 Ene= -4.06420209089483E-01
 Spin= Alpha
 Occup= 2.000000
  1      -0.018716436983
  2       0.030073411577
  3       0.116823802524
  4      -0.028898870580
  5       0.282601486020
  6       0.000005706217
  7       0.006125670803
  8       0.060284764998
  9       0.000002544928
 10      -0.000065465261
 11      -0.000002140279
 12       0.000001164346
 13      -0.021771242981
 14       0.006189075069
 15       0.034069365983
 16      -0.082964397574
 17      -0.114959034115
 18       0.165187207483
 19      -0.095867788134
 20       0.000017925968
 21       0.089311949535
 22      -0.044097401689
 23       0.000008498493
 24      -0.000960599701
 25       0.000000552006
 26      -0.000001351560
 27       0.000988305589
 28      -0.005955930736
 29       0.294942538393
 30       0.124814468444
 31      -0.001038466486
 32      -0.011992830331
 33      -0.000000441040
 34       0.050389618045
 35       0.043343953632
 36       0.001422860051
 37       0.001105873577
 38       0.000000065623
 39      -0.008763451230
 40      -0.017897301346
 41      -0.031136548525
 42       0.041486020713
 43      -0.161764524241
 44      -0.000004298247
 45       0.025010941884
 46      -0.095872730361
 47      -0.000002104991
 48      -0.001486786362
 49      -0.000000304360
 50       0.000001562039
 51      -0.007147720249
 52       0.005539147229
 53       0.014704442460
 54      -0.034048631915
 55      -0.047516515104
 56       0.087015630019
 57      -0.304328745252
 58       0.000001646695
 59       0.012488983841
 60      -0.099863256823
 61      -0.000000967969
 62      -0.000505464835
 63      -0.000002062061
 64       0.000001242436
 65      -0.020891256831
 66       0.004971172077
 67       0.285270662409
 68       0.143142056218
 69       0.002156702549
 70       0.009521786783
 71       0.000000588109
 72      -0.218568258992
 73      -0.102195451290
 74      -0.009642784348
 75      -0.002334005045
 76      -0.000001126738
 Sym=     1a
 Ene= -3.11209076456681E-01
 Spin= Alpha
 Occup= 2.000000
  1      -0.000000384987
  2       0.000000414183
  3       0.000006561182
  4       0.000041202004
  5       0.000008824610
  6      -0.370898318767
  7       0.000030908394
  8       0.000010218321
  9      -0.250060822145
 10       0.000003421774